/*--------------------------------*- C++ -*----------------------------------*\
  =========                 |
  \\      /  F ield         | OpenFOAM: The Open Source CFD Toolbox
   \\    /   O peration     | Website:  https://openfoam.org
    \\  /    A nd           | Version:  11
     \\/     M anipulation  |
\*---------------------------------------------------------------------------*/
FoamFile
{
    format      ascii;
    class       volScalarField;
    location    "0.5";
    object      CO2;
}
// * * * * * * * * * * * * * * * * * * * * * * * * * * * * * * * * * * * * * //

dimensions      [0 0 0 0 0 0 0];

internalField   nonuniform List<scalar> 
6000
(
1
1
1
1
1
1
1
1
1
1
1
1
1
1
1
1
1
1
1
1
1
1
1
1
1
1
1
1
1
1
1
1
1
1
1
1
1
1
1
1
1
1
1
1
1
1
1
1
1
1
3.8679533e-05
3.8679869e-05
3.8680027e-05
3.8679673e-05
3.8679847e-05
3.8679639e-05
3.8680022e-05
3.8679995e-05
3.8679993e-05
3.8679616e-05
3.8680067e-05
3.8679629e-05
3.8680081e-05
3.867969e-05
3.8679772e-05
3.8680123e-05
3.867976e-05
3.8679807e-05
3.8679829e-05
3.8679744e-05
3.8680106e-05
3.8679478e-05
3.8679786e-05
3.8679931e-05
3.8679979e-05
3.8679585e-05
3.8679634e-05
3.8680123e-05
3.867973e-05
3.8679816e-05
3.8679873e-05
3.8679644e-05
3.8680002e-05
3.8679955e-05
3.8679963e-05
3.8679671e-05
3.867996e-05
3.8679859e-05
3.8679748e-05
3.8679671e-05
3.8680028e-05
3.8680028e-05
3.8679444e-05
3.8680002e-05
3.8679699e-05
3.8680094e-05
3.8679583e-05
3.8680108e-05
3.8679703e-05
3.8680212e-05
1.0571234e-09
1.0571244e-09
1.0571433e-09
1.0571485e-09
1.0571789e-09
1.0571313e-09
1.05716e-09
1.0571408e-09
1.0571199e-09
1.0571682e-09
1.057165e-09
1.0571604e-09
1.0571586e-09
1.0571557e-09
1.0571084e-09
1.0571505e-09
1.0571611e-09
1.0571595e-09
1.057162e-09
1.0571614e-09
1.0571412e-09
1.057133e-09
1.0571667e-09
1.0571491e-09
1.057155e-09
1.0571384e-09
1.057146e-09
1.0571573e-09
1.0571601e-09
1.0571686e-09
1.0571234e-09
1.0571506e-09
1.0571565e-09
1.0571271e-09
1.0571575e-09
1.0571096e-09
1.0571797e-09
1.0571617e-09
1.0571602e-09
1.0571411e-09
1.0571316e-09
1.0571547e-09
1.0571303e-09
1.0571696e-09
1.0571654e-09
1.0571323e-09
1.0571452e-09
1.0571689e-09
1.0571731e-09
1.0571178e-09
2.9140133e-14
2.914136e-14
2.9131986e-14
2.9142398e-14
2.9151937e-14
2.9138592e-14
2.914138e-14
2.9142054e-14
2.9141993e-14
2.9147711e-14
2.9130108e-14
2.9147676e-14
2.9119761e-14
2.9146767e-14
2.9138491e-14
2.9134233e-14
2.9149213e-14
2.9148551e-14
2.9148914e-14
2.915108e-14
2.9131142e-14
2.9135224e-14
2.9142163e-14
2.9128775e-14
2.9122888e-14
2.9141769e-14
2.9140974e-14
2.9122315e-14
2.9147312e-14
2.9150838e-14
2.913956e-14
2.9144687e-14
2.9124967e-14
2.9142208e-14
2.9141623e-14
2.9140112e-14
2.9141093e-14
2.9144171e-14
2.9147793e-14
2.9143013e-14
2.9141427e-14
2.9123101e-14
2.9131546e-14
2.9137e-14
2.9149939e-14
2.9136755e-14
2.9140333e-14
2.9128749e-14
2.914953e-14
2.9141454e-14
8.0446442e-19
8.0454663e-19
8.024831e-19
8.0446164e-19
8.0439696e-19
8.0405275e-19
8.0457448e-19
8.0478193e-19
8.0428013e-19
8.0509779e-19
8.0384322e-19
8.0478447e-19
8.0270156e-19
8.0448683e-19
8.03898e-19
8.0414595e-19
8.0446742e-19
8.0453768e-19
8.0417827e-19
8.0504027e-19
8.0373348e-19
8.0319205e-19
8.0360049e-19
8.0368264e-19
8.0317152e-19
8.0391523e-19
8.036129e-19
8.0315575e-19
8.0441974e-19
8.0468842e-19
8.0418178e-19
8.0387442e-19
8.0293066e-19
8.0457795e-19
8.0423764e-19
8.039527e-19
8.0349847e-19
8.0398744e-19
8.0432856e-19
8.0373555e-19
8.0479053e-19
8.0300217e-19
8.0283549e-19
8.0332138e-19
8.0477954e-19
8.0434898e-19
8.0441002e-19
8.0344587e-19
8.0503986e-19
8.0415163e-19
2.2232909e-23
2.2237586e-23
2.2103348e-23
2.2207116e-23
2.2195823e-23
2.2161851e-23
2.2221122e-23
2.2255487e-23
2.2212731e-23
2.2257e-23
2.2228275e-23
2.2233349e-23
2.2158267e-23
2.2217863e-23
2.2144429e-23
2.2226823e-23
2.2206689e-23
2.2211238e-23
2.21805e-23
2.2243523e-23
2.2210808e-23
2.2148357e-23
2.2116147e-23
2.2206266e-23
2.2188376e-23
2.2186225e-23
2.2131864e-23
2.2205261e-23
2.2180159e-23
2.222359e-23
2.2166651e-23
2.2174995e-23
2.2163299e-23
2.22402e-23
2.2205509e-23
2.2164239e-23
2.2155246e-23
2.217563e-23
2.2203667e-23
2.2158214e-23
2.2255413e-23
2.2183985e-23
2.2129532e-23
2.2136055e-23
2.2238162e-23
2.2199208e-23
2.2212562e-23
2.2179832e-23
2.2236529e-23
2.2191895e-23
6.1367808e-28
6.1516304e-28
6.0984613e-28
6.1257595e-28
6.1380066e-28
6.1065272e-28
6.1391865e-28
6.1541946e-28
6.1445848e-28
6.1522899e-28
6.155255e-28
6.1466184e-28
6.1237731e-28
6.1354604e-28
6.0862692e-28
6.1457319e-28
6.1327072e-28
6.1349232e-28
6.1296884e-28
6.1489871e-28
6.1367741e-28
6.120264e-28
6.0905311e-28
6.1409124e-28
6.1385008e-28
6.1245971e-28
6.0946378e-28
6.1515054e-28
6.1169535e-28
6.1481025e-28
6.1088786e-28
6.1226371e-28
6.1245844e-28
6.1532422e-28
6.1363366e-28
6.1060288e-28
6.1200709e-28
6.1264488e-28
6.132454e-28
6.1042787e-28
6.1607455e-28
6.1393472e-28
6.1059827e-28
6.1093342e-28
6.157458e-28
6.1180194e-28
6.1336754e-28
6.1264669e-28
6.1326632e-28
6.1255641e-28
1.6897194e-32
1.6989169e-32
1.6830159e-32
1.688984e-32
1.6954337e-32
1.686867e-32
1.6957162e-32
1.6981081e-32
1.6990262e-32
1.6992922e-32
1.7043885e-32
1.6965967e-32
1.691016e-32
1.6913973e-32
1.6760417e-32
1.6964053e-32
1.6894609e-32
1.6927038e-32
1.6935216e-32
1.6988376e-32
1.6932289e-32
1.6883177e-32
1.6799473e-32
1.6961091e-32
1.69976e-32
1.688503e-32
1.6820266e-32
1.7018417e-32
1.6860741e-32
1.6990004e-32
1.6865964e-32
1.6861548e-32
1.6920813e-32
1.7007293e-32
1.6961526e-32
1.683627e-32
1.6886014e-32
1.6956969e-32
1.6918614e-32
1.6768349e-32
1.7050711e-32
1.6950004e-32
1.6854017e-32
1.688949e-32
1.7012687e-32
1.6877724e-32
1.6939271e-32
1.69486e-32
1.6892535e-32
1.6885993e-32
4.661185e-37
4.6802389e-37
4.6472216e-37
4.6603373e-37
4.6714004e-37
4.6550792e-37
4.6732728e-37
4.6824805e-37
4.6844231e-37
4.6901623e-37
4.7158956e-37
4.6779732e-37
4.6608304e-37
4.6647321e-37
4.6307012e-37
4.6795874e-37
4.6495962e-37
4.6678045e-37
4.6751035e-37
4.6860994e-37
4.6823994e-37
4.6451285e-37
4.6300324e-37
4.6716878e-37
4.7025043e-37
4.6528916e-37
4.6462547e-37
4.6908903e-37
4.635751e-37
4.6835776e-37
4.6504613e-37
4.6399763e-37
4.6718303e-37
4.6989933e-37
4.6850403e-37
4.6534955e-37
4.6456666e-37
4.6863379e-37
4.6690622e-37
4.6139095e-37
4.7017344e-37
4.6687318e-37
4.6542233e-37
4.6654659e-37
4.6773265e-37
4.6561505e-37
4.6724971e-37
4.6910421e-37
4.6588798e-37
4.6522824e-37
1.2863187e-41
1.2893386e-41
1.2831965e-41
1.2867933e-41
1.2863566e-41
1.2817998e-41
1.2867051e-41
1.2903093e-41
1.288347e-41
1.2939168e-41
1.3022438e-41
1.2924746e-41
1.2848921e-41
1.2876504e-41
1.2766117e-41
1.2926245e-41
1.2822697e-41
1.2866794e-41
1.2917621e-41
1.2892664e-41
1.2933068e-41
1.2789333e-41
1.278274e-41
1.2859499e-41
1.295743e-41
1.2818467e-41
1.282169e-41
1.2902261e-41
1.2790806e-41
1.2886769e-41
1.2819164e-41
1.2809071e-41
1.288963e-41
1.2977608e-41
1.2931569e-41
1.2862992e-41
1.2782052e-41
1.2913062e-41
1.2885115e-41
1.2743597e-41
1.2912656e-41
1.2871001e-41
1.2851981e-41
1.2878554e-41
1.2853406e-41
1.2827836e-41
1.2866735e-41
1.2931937e-41
1.2846911e-41
1.2811918e-41
3.5457775e-46
3.550759e-46
3.5407775e-46
3.5549672e-46
3.5399313e-46
3.5340487e-46
3.5447554e-46
3.5520405e-46
3.5454896e-46
3.5649643e-46
3.5845948e-46
3.567375e-46
3.5458544e-46
3.5540209e-46
3.5211245e-46
3.5698092e-46
3.5364602e-46
3.5391457e-46
3.5631538e-46
3.5466765e-46
3.55937e-46
3.520224e-46
3.5304294e-46
3.5396337e-46
3.558533e-46
3.533805e-46
3.5394205e-46
3.5510041e-46
3.5458357e-46
3.5412767e-46
3.5358505e-46
3.5347341e-46
3.5563339e-46
3.5767284e-46
3.5638375e-46
3.5529079e-46
3.5212486e-46
3.5546623e-46
3.5516078e-46
3.5247857e-46
3.5446005e-46
3.5470056e-46
3.5482125e-46
3.5529282e-46
3.535565e-46
3.5364536e-46
3.5455903e-46
3.5533789e-46
3.5372047e-46
3.5260369e-46
9.7955791e-51
9.7677496e-51
9.7571273e-51
9.8263308e-51
9.7521442e-51
9.7456533e-51
9.7637101e-51
9.7946569e-51
9.7593139e-51
9.8155674e-51
9.8488335e-51
9.8200429e-51
9.7777048e-51
9.8063874e-51
9.746424e-51
9.8405111e-51
9.7500888e-51
9.7231813e-51
9.8379308e-51
9.7655148e-51
9.8214041e-51
9.7044942e-51
9.7341534e-51
9.7348902e-51
9.7873819e-51
9.7529779e-51
9.773276e-51
9.7819889e-51
9.8144688e-51
9.7591929e-51
9.74363e-51
9.7467879e-51
9.8027347e-51
9.8576619e-51
9.7978613e-51
9.8269309e-51
9.7156009e-51
9.7741989e-51
9.7774307e-51
9.7608309e-51
9.7410374e-51
9.7767087e-51
9.7825051e-51
9.7834189e-51
9.7307842e-51
9.7412056e-51
9.7767211e-51
9.7797738e-51
9.7530018e-51
9.7237182e-51
2.7055173e-55
2.6883635e-55
2.6900959e-55
2.7106335e-55
2.6841855e-55
2.6849317e-55
2.689728e-55
2.7019001e-55
2.6854415e-55
2.7065614e-55
2.7063821e-55
2.7041625e-55
2.6969058e-55
2.706897e-55
2.6957232e-55
2.7085416e-55
2.6897081e-55
2.6763874e-55
2.7228897e-55
2.6805948e-55
2.7104645e-55
2.6784165e-55
2.687136e-55
2.6833816e-55
2.6970461e-55
2.6916437e-55
2.700192e-55
2.6949451e-55
2.7114239e-55
2.69708e-55
2.6885731e-55
2.6914042e-55
2.6930208e-55
2.7197828e-55
2.6938231e-55
2.720241e-55
2.6799183e-55
2.6909622e-55
2.6913374e-55
2.6977777e-55
2.6813344e-55
2.6928097e-55
2.6976176e-55
2.6945231e-55
2.6863632e-55
2.6852303e-55
2.6912235e-55
2.6956127e-55
2.6961e-55
2.6807128e-55
7.4628178e-60
7.3927934e-60
7.429139e-60
7.4622386e-60
7.3962522e-60
7.3900146e-60
7.4139629e-60
7.4568357e-60
7.3984793e-60
7.4673658e-60
7.4327692e-60
7.4486947e-60
7.452535e-60
7.4665939e-60
7.4367503e-60
7.4518857e-60
7.4162931e-60
7.3659203e-60
7.5246707e-60
7.3583273e-60
7.4474627e-60
7.3919613e-60
7.4201642e-60
7.4124704e-60
7.4311965e-60
7.4159082e-60
7.4576592e-60
7.4120038e-60
7.47906e-60
7.4552889e-60
7.4112756e-60
7.4355495e-60
7.3972641e-60
7.497058e-60
7.4139757e-60
7.5153066e-60
7.3691807e-60
7.4175291e-60
7.4120011e-60
7.4543212e-60
7.3779367e-60
7.4055538e-60
7.4420202e-60
7.4268322e-60
7.424738e-60
7.4144814e-60
7.4158005e-60
7.427619e-60
7.4546134e-60
7.3831476e-60
2.0615951e-64
2.0378847e-64
2.0497834e-64
2.0532719e-64
2.0427808e-64
2.0377394e-64
2.042039e-64
2.0581993e-64
2.0379632e-64
2.060517e-64
2.0414032e-64
2.0501983e-64
2.0601196e-64
2.0567695e-64
2.0484054e-64
2.0499039e-64
2.0434275e-64
2.024153e-64
2.0774468e-64
2.0305988e-64
2.0463824e-64
2.0452384e-64
2.0490404e-64
2.0461486e-64
2.0484258e-64
2.043004e-64
2.0579009e-64
2.0387159e-64
2.0606254e-64
2.0591959e-64
2.0416053e-64
2.0556401e-64
2.0407673e-64
2.0626945e-64
2.0412641e-64
2.0691776e-64
2.0284299e-64
2.0440611e-64
2.0425861e-64
2.0621149e-64
2.032303e-64
2.0364471e-64
2.0505426e-64
2.0436882e-64
2.0486656e-64
2.0450955e-64
2.0472839e-64
2.0481086e-64
2.0593322e-64
2.0372805e-64
5.6968619e-69
5.6331154e-69
5.6511199e-69
5.6541044e-69
5.625527e-69
5.6238273e-69
5.623055e-69
5.6702361e-69
5.6291062e-69
5.6802391e-69
5.6123045e-69
5.6397936e-69
5.6908422e-69
5.6704052e-69
5.6533204e-69
5.6405272e-69
5.6238578e-69
5.5764093e-69
5.722028e-69
5.6176419e-69
5.6418443e-69
5.6627081e-69
5.6485993e-69
5.6409264e-69
5.6456361e-69
5.6371752e-69
5.6737458e-69
5.6168938e-69
5.6632153e-69
5.6780534e-69
5.6316646e-69
5.6773918e-69
5.6355069e-69
5.6713661e-69
5.6240988e-69
5.6870462e-69
5.5974048e-69
5.6293818e-69
5.6344163e-69
5.6939482e-69
5.6035987e-69
5.5996371e-69
5.6443009e-69
5.6268201e-69
5.6595418e-69
5.6320656e-69
5.6446421e-69
5.6472391e-69
5.6853933e-69
5.6260667e-69
1.570883e-73
1.555538e-73
1.5592219e-73
1.5592985e-73
1.5482675e-73
1.5492632e-73
1.54884e-73
1.5626235e-73
1.5557287e-73
1.5666703e-73
1.5453548e-73
1.5515515e-73
1.5708422e-73
1.5621123e-73
1.5628959e-73
1.5524655e-73
1.5469377e-73
1.5372099e-73
1.5723482e-73
1.5495476e-73
1.5586608e-73
1.5638973e-73
1.5514372e-73
1.5532348e-73
1.5555636e-73
1.5550099e-73
1.5654989e-73
1.5467399e-73
1.5582563e-73
1.5628934e-73
1.5527818e-73
1.5660272e-73
1.5538657e-73
1.562814e-73
1.5489623e-73
1.5633863e-73
1.5423039e-73
1.5482882e-73
1.5530311e-73
1.568986e-73
1.5445213e-73
1.5426944e-73
1.5546965e-73
1.5525189e-73
1.5623327e-73
1.5492621e-73
1.5556677e-73
1.5579485e-73
1.5685259e-73
1.5507973e-73
4.3299162e-78
4.2991582e-78
4.312876e-78
4.2968396e-78
4.2736915e-78
4.2679041e-78
4.2641623e-78
4.3023973e-78
4.2869486e-78
4.3297613e-78
4.2672853e-78
4.2790114e-78
4.3295183e-78
4.3002807e-78
4.3152213e-78
4.2742099e-78
4.2690784e-78
4.2390018e-78
4.3265069e-78
4.2642218e-78
4.3109369e-78
4.3054657e-78
4.2674072e-78
4.2736509e-78
4.2844993e-78
4.2948478e-78
4.3191976e-78
4.2657257e-78
4.3051869e-78
4.301985e-78
4.2825662e-78
4.3189319e-78
4.2797892e-78
4.3126617e-78
4.2652843e-78
4.3038642e-78
4.2450188e-78
4.2641121e-78
4.2836895e-78
4.3178194e-78
4.2619969e-78
4.2577212e-78
4.2856138e-78
4.2824772e-78
4.2950119e-78
4.2629878e-78
4.2872774e-78
4.3084476e-78
4.3187e-78
4.2734653e-78
1.1938041e-82
1.1876079e-82
1.1933195e-82
1.1835358e-82
1.1811832e-82
1.1754604e-82
1.1747502e-82
1.1828096e-82
1.1808044e-82
1.1953123e-82
1.1790332e-82
1.1808301e-82
1.1915497e-82
1.1839888e-82
1.1874324e-82
1.1764965e-82
1.1827169e-82
1.1699167e-82
1.1924081e-82
1.177338e-82
1.190317e-82
1.1849079e-82
1.1776457e-82
1.1757977e-82
1.1801684e-82
1.187929e-82
1.1902682e-82
1.17802e-82
1.1882382e-82
1.1851253e-82
1.1811632e-82
1.1899531e-82
1.1788269e-82
1.1887339e-82
1.1776608e-82
1.1859815e-82
1.1664575e-82
1.1760939e-82
1.1809917e-82
1.1908693e-82
1.1744951e-82
1.1766269e-82
1.1802258e-82
1.182999e-82
1.1807767e-82
1.1745822e-82
1.182145e-82
1.1891416e-82
1.1872552e-82
1.1801029e-82
3.2884218e-87
3.274085e-87
3.2974573e-87
3.2622442e-87
3.257708e-87
3.240914e-87
3.2401776e-87
3.258249e-87
3.251879e-87
3.293525e-87
3.2461979e-87
3.255594e-87
3.2809344e-87
3.2586497e-87
3.260673e-87
3.2408557e-87
3.2732101e-87
3.2252464e-87
3.2901087e-87
3.2578212e-87
3.2810637e-87
3.2637611e-87
3.2491837e-87
3.2345254e-87
3.2477215e-87
3.2779251e-87
3.2840895e-87
3.2472516e-87
3.274562e-87
3.2648911e-87
3.2554276e-87
3.2788842e-87
3.2509694e-87
3.2765496e-87
3.2540639e-87
3.2597696e-87
3.2073797e-87
3.2408519e-87
3.2549597e-87
3.290402e-87
3.2363594e-87
3.2549277e-87
3.2587572e-87
3.2751391e-87
3.2527686e-87
3.2362831e-87
3.2618384e-87
3.2718902e-87
3.2708874e-87
3.2592195e-87
9.0708411e-92
9.0288351e-92
9.1008309e-92
8.9949764e-92
8.968059e-92
8.9352034e-92
8.939663e-92
8.9769085e-92
8.9688862e-92
9.0775437e-92
8.9356897e-92
8.9841971e-92
9.0565911e-92
8.964724e-92
8.9676189e-92
8.9348979e-92
9.0400043e-92
8.9095148e-92
9.065963e-92
9.0040371e-92
9.0475531e-92
8.983244e-92
8.9477009e-92
8.9018986e-92
8.9365124e-92
9.0108611e-92
9.0424475e-92
8.9434923e-92
9.014203e-92
8.9921592e-92
8.9695338e-92
9.0382324e-92
8.9701247e-92
9.0471264e-92
8.9808087e-92
8.9616998e-92
8.8632417e-92
8.9276408e-92
8.9866152e-92
9.0780228e-92
8.9323329e-92
8.9916525e-92
9.0342354e-92
9.0583574e-92
8.9691783e-92
8.9235876e-92
8.992549e-92
9.0220928e-92
9.0248614e-92
8.9944115e-92
2.5028408e-96
2.4938867e-96
2.5083184e-96
2.4773714e-96
2.4727567e-96
2.462267e-96
2.4663036e-96
2.4737891e-96
2.4740862e-96
2.5051503e-96
2.4636396e-96
2.4752464e-96
2.4982393e-96
2.4684891e-96
2.4659993e-96
2.4604651e-96
2.4976962e-96
2.4632878e-96
2.4948757e-96
2.4845036e-96
2.4940355e-96
2.4784315e-96
2.46521e-96
2.4535193e-96
2.4615906e-96
2.4783641e-96
2.483124e-96
2.4664182e-96
2.481818e-96
2.4756343e-96
2.470003e-96
2.4919495e-96
2.4732071e-96
2.5004633e-96
2.4786436e-96
2.4756027e-96
2.4518835e-96
2.4650932e-96
2.4801035e-96
2.5022345e-96
2.4651308e-96
2.4799495e-96
2.5041316e-96
2.5025022e-96
2.4742436e-96
2.4631237e-96
2.477233e-96
2.4898923e-96
2.4835897e-96
2.4797416e-96
6.8979125e-101
6.8822391e-101
6.9057733e-101
6.8135494e-101
6.8283026e-101
6.7866009e-101
6.8033158e-101
6.8331096e-101
6.8255933e-101
6.9012825e-101
6.7871951e-101
6.8042515e-101
6.8747698e-101
6.8069436e-101
6.7857057e-101
6.7807102e-101
6.8868811e-101
6.8077782e-101
6.8656586e-101
6.8460895e-101
6.8753018e-101
6.8449087e-101
6.7907329e-101
6.7550774e-101
6.7820432e-101
6.8223471e-101
6.8247297e-101
6.8109431e-101
6.839918e-101
6.8261497e-101
6.7974752e-101
6.8809575e-101
6.8059078e-101
6.9008194e-101
6.8439038e-101
6.8388218e-101
6.7658388e-101
6.7989181e-101
6.8384951e-101
6.8986512e-101
6.8011612e-101
6.8394573e-101
6.9241295e-101
6.907217e-101
6.8259774e-101
6.784121e-101
6.8231122e-101
6.8542408e-101
6.8378117e-101
6.8454644e-101
1.9041856e-105
1.8957792e-105
1.901721e-105
1.8756427e-105
1.8867614e-105
1.8692865e-105
1.8765235e-105
1.8851457e-105
1.883938e-105
1.8980689e-105
1.8723955e-105
1.8742784e-105
1.892294e-105
1.8773109e-105
1.8734563e-105
1.8734307e-105
1.8943913e-105
1.882797e-105
1.8892768e-105
1.8864131e-105
1.8938797e-105
1.8860688e-105
1.8692408e-105
1.8623874e-105
1.8724705e-105
1.8768872e-105
1.8779835e-105
1.8796364e-105
1.8856875e-105
1.8820048e-105
1.8705619e-105
1.9010888e-105
1.8723656e-105
1.9018088e-105
1.8925779e-105
1.885478e-105
1.8682429e-105
1.8685863e-105
1.8878673e-105
1.9013726e-105
1.8782304e-105
1.8860077e-105
1.9094906e-105
1.9067649e-105
1.8827399e-105
1.867965e-105
1.8824585e-105
1.8854206e-105
1.8875823e-105
1.892113e-105
5.2637759e-110
5.2141755e-110
5.2404983e-110
5.1793312e-110
5.2113219e-110
5.1603385e-110
5.1797334e-110
5.2004809e-110
5.1985799e-110
5.2251201e-110
5.1698359e-110
5.1698175e-110
5.2113013e-110
5.1744332e-110
5.174392e-110
5.1816789e-110
5.2142706e-110
5.2006662e-110
5.2047339e-110
5.1960623e-110
5.2153799e-110
5.1959191e-110
5.1538594e-110
5.1498456e-110
5.1801359e-110
5.1726708e-110
5.1753301e-110
5.1856429e-110
5.191556e-110
5.1867748e-110
5.1590617e-110
5.2419701e-110
5.1583657e-110
5.2365261e-110
5.2306171e-110
5.2030192e-110
5.1668884e-110
5.1422264e-110
5.221907e-110
5.2372917e-110
5.1881132e-110
5.199756e-110
5.249303e-110
5.2630333e-110
5.1899107e-110
5.1532797e-110
5.1999451e-110
5.1972072e-110
5.2083914e-110
5.2216183e-110
1.4535199e-114
1.4362348e-114
1.4420987e-114
1.4331755e-114
1.4362117e-114
1.4258489e-114
1.4329216e-114
1.4371814e-114
1.4333222e-114
1.4386629e-114
1.4278487e-114
1.4248353e-114
1.4349865e-114
1.4267244e-114
1.4287788e-114
1.4312297e-114
1.4359774e-114
1.4366915e-114
1.4340412e-114
1.4287408e-114
1.4357599e-114
1.4286231e-114
1.4171931e-114
1.4224583e-114
1.4316299e-114
1.4260989e-114
1.4270922e-114
1.4317694e-114
1.4249611e-114
1.4290986e-114
1.422944e-114
1.4392768e-114
1.4207876e-114
1.4406365e-114
1.4414537e-114
1.4366406e-114
1.426697e-114
1.4209269e-114
1.4431031e-114
1.4429269e-114
1.4297316e-114
1.4344753e-114
1.4430188e-114
1.4482375e-114
1.4279196e-114
1.422511e-114
1.4332162e-114
1.434504e-114
1.4389204e-114
1.4395609e-114
4.0090721e-119
3.9706733e-119
3.9632568e-119
3.9663392e-119
3.9525963e-119
3.9347863e-119
3.9631715e-119
3.9713183e-119
3.9465791e-119
3.9628275e-119
3.9401256e-119
3.9254847e-119
3.9514874e-119
3.9326265e-119
3.9466281e-119
3.9497443e-119
3.9525611e-119
3.9679234e-119
3.9525077e-119
3.9263808e-119
3.9528343e-119
3.9335041e-119
3.8948612e-119
3.922117e-119
3.9459276e-119
3.9309781e-119
3.9243993e-119
3.9497552e-119
3.9175815e-119
3.9314869e-119
3.9189118e-119
3.9513586e-119
3.9196634e-119
3.9635331e-119
3.9683017e-119
3.9530101e-119
3.9328846e-119
3.9348892e-119
3.9797105e-119
3.9713604e-119
3.929966e-119
3.9592953e-119
3.9681296e-119
3.9800612e-119
3.9338313e-119
3.9274172e-119
3.9400046e-119
3.9537166e-119
3.9729123e-119
3.9644922e-119
1.1060026e-123
1.0980341e-123
1.0900376e-123
1.0970783e-123
1.090298e-123
1.0860219e-123
1.0930766e-123
1.0969582e-123
1.0875528e-123
1.0918347e-123
1.0871762e-123
1.0813563e-123
1.0870664e-123
1.0840815e-123
1.0867411e-123
1.0890355e-123
1.0876629e-123
1.0945984e-123
1.090566e-123
1.082031e-123
1.0868307e-123
1.0882982e-123
1.0764296e-123
1.0799993e-123
1.0875037e-123
1.0828716e-123
1.0786373e-123
1.0860033e-123
1.0799578e-123
1.083783e-123
1.0817424e-123
1.089293e-123
1.0836733e-123
1.0910022e-123
1.0940515e-123
1.0839627e-123
1.0853019e-123
1.0893569e-123
1.0975023e-123
1.0938549e-123
1.0803172e-123
1.0904756e-123
1.0903332e-123
1.0968476e-123
1.0874534e-123
1.0848567e-123
1.0841691e-123
1.0901784e-123
1.0944304e-123
1.0914771e-123
3.0507179e-128
3.0340061e-128
3.0006636e-128
3.0280367e-128
3.0135592e-128
2.9970066e-128
3.0101827e-128
3.0271552e-128
2.9987274e-128
3.0095557e-128
3.000118e-128
2.9809205e-128
2.9895209e-128
2.9906514e-128
2.9896797e-128
3.0023568e-128
3.0005538e-128
3.0226593e-128
3.0133121e-128
2.986582e-128
2.9863854e-128
3.0089143e-128
2.9779895e-128
2.979762e-128
3.0008279e-128
2.9837447e-128
2.9695083e-128
2.9844562e-128
2.9736251e-128
2.9868788e-128
2.9914334e-128
3.0036827e-128
2.994773e-128
3.0061205e-128
3.0165321e-128
2.9811664e-128
2.9980376e-128
3.0103903e-128
3.0264464e-128
3.0201903e-128
2.9746583e-128
3.0017054e-128
2.9911803e-128
3.0215328e-128
3.0035373e-128
2.9941432e-128
2.9921118e-128
3.0135813e-128
3.0230782e-128
3.0114095e-128
8.4054143e-133
8.3785786e-133
8.2826558e-133
8.3317778e-133
8.3080184e-133
8.2748929e-133
8.2664621e-133
8.3336512e-133
8.2744476e-133
8.2899567e-133
8.2664716e-133
8.2224744e-133
8.237221e-133
8.2386392e-133
8.2363254e-133
8.2863938e-133
8.2919581e-133
8.3439228e-133
8.3195061e-133
8.2436199e-133
8.2295892e-133
8.3003209e-133
8.2242124e-133
8.2304538e-133
8.2722862e-133
8.2318583e-133
8.176782e-133
8.2343326e-133
8.1846393e-133
8.209566e-133
8.2739604e-133
8.2781087e-133
8.2829791e-133
8.3022816e-133
8.2955407e-133
8.2204104e-133
8.2711645e-133
8.3118933e-133
8.3436799e-133
8.3439899e-133
8.2019121e-133
8.2803328e-133
8.1912964e-133
8.3144584e-133
8.2688744e-133
8.2568091e-133
8.2634045e-133
8.3381664e-133
8.3647539e-133
8.3170805e-133
2.3131897e-137
2.3126122e-137
2.2889189e-137
2.2894646e-137
2.2864709e-137
2.2837156e-137
2.2679364e-137
2.2903003e-137
2.2816242e-137
2.2833736e-137
2.280395e-137
2.2703307e-137
2.2702274e-137
2.2686788e-137
2.2690357e-137
2.285403e-137
2.2876005e-137
2.3015568e-137
2.295248e-137
2.2759122e-137
2.2676643e-137
2.2857461e-137
2.2720069e-137
2.2689889e-137
2.2786393e-137
2.2641683e-137
2.2589838e-137
2.2728922e-137
2.2543678e-137
2.2626908e-137
2.2842052e-137
2.2809065e-137
2.2907258e-137
2.291092e-137
2.278582e-137
2.2624506e-137
2.2801586e-137
2.2988721e-137
2.2978635e-137
2.3019501e-137
2.2597838e-137
2.2835077e-137
2.2459707e-137
2.2898391e-137
2.2735735e-137
2.27564e-137
2.2830349e-137
2.3053484e-137
2.3100028e-137
2.2926476e-137
6.3587565e-142
6.3797529e-142
6.3171063e-142
6.2990709e-142
6.3074049e-142
6.2928541e-142
6.233028e-142
6.3039179e-142
6.2844545e-142
6.2995898e-142
6.2885064e-142
6.2623736e-142
6.2476425e-142
6.2534881e-142
6.2580215e-142
6.3015479e-142
6.3075854e-142
6.3377212e-142
6.3306879e-142
6.2740396e-142
6.2481539e-142
6.2828988e-142
6.2678678e-142
6.2526782e-142
6.2806201e-142
6.2174505e-142
6.2505187e-142
6.2727198e-142
6.2186441e-142
6.26078e-142
6.2941173e-142
6.2815529e-142
6.3284695e-142
6.3090502e-142
6.2771119e-142
6.2200094e-142
6.2833027e-142
6.3643822e-142
6.3243829e-142
6.3346626e-142
6.2241357e-142
6.290731e-142
6.1605386e-142
6.2972185e-142
6.2670444e-142
6.2631532e-142
6.306919e-142
6.3500502e-142
6.3631347e-142
6.3116547e-142
1.7514796e-146
1.7601332e-146
1.7423501e-146
1.7360062e-146
1.7413888e-146
1.7344725e-146
1.7125076e-146
1.7364991e-146
1.7341814e-146
1.7357204e-146
1.7349286e-146
1.724452e-146
1.7173037e-146
1.723774e-146
1.7268986e-146
1.7372177e-146
1.7384212e-146
1.7421745e-146
1.7426043e-146
1.7273354e-146
1.7229507e-146
1.7302991e-146
1.7287241e-146
1.7225186e-146
1.7326003e-146
1.7134355e-146
1.7263514e-146
1.734385e-146
1.7153715e-146
1.7319688e-146
1.7360469e-146
1.7329488e-146
1.7457892e-146
1.7369305e-146
1.7325794e-146
1.7127959e-146
1.7266885e-146
1.7548824e-146
1.7421732e-146
1.7441399e-146
1.7166716e-146
1.7325592e-146
1.6919205e-146
1.7361525e-146
1.7312419e-146
1.7261194e-146
1.7381197e-146
1.7449574e-146
1.7499987e-146
1.7393277e-146
4.8341332e-151
4.8520211e-151
4.7978839e-151
4.7886784e-151
4.80375e-151
4.7761329e-151
4.7195257e-151
4.7738732e-151
4.7952478e-151
4.7771555e-151
4.7918042e-151
4.7426895e-151
4.7261818e-151
4.7492099e-151
4.7639239e-151
4.7876561e-151
4.7914756e-151
4.7985764e-151
4.799475e-151
4.7546318e-151
4.7518725e-151
4.7765939e-151
4.7831998e-151
4.7462947e-151
4.7898886e-151
4.7378772e-151
4.7666689e-151
4.7896844e-151
4.7237584e-151
4.7853961e-151
4.7896009e-151
4.7825889e-151
4.8088012e-151
4.7782395e-151
4.7720998e-151
4.7243262e-151
4.748563e-151
4.8216994e-151
4.7925676e-151
4.8132575e-151
4.7337371e-151
4.7736021e-151
4.6647044e-151
4.799238e-151
4.7881679e-151
4.7615106e-151
4.7819974e-151
4.8092694e-151
4.8196683e-151
4.7998259e-151
1.3332956e-155
1.3357679e-155
1.3207165e-155
1.3199218e-155
1.3241914e-155
1.3156021e-155
1.308497e-155
1.3124378e-155
1.3255176e-155
1.314873e-155
1.3211323e-155
1.3071784e-155
1.3040495e-155
1.3083133e-155
1.3136737e-155
1.3182874e-155
1.3207887e-155
1.3253766e-155
1.3232135e-155
1.3120144e-155
1.3103253e-155
1.3160797e-155
1.3259857e-155
1.3102297e-155
1.3255677e-155
1.3071738e-155
1.3143828e-155
1.3211827e-155
1.3024302e-155
1.3221251e-155
1.321102e-155
1.3164555e-155
1.3251111e-155
1.3156512e-155
1.3126144e-155
1.3042627e-155
1.3096037e-155
1.3265393e-155
1.3197173e-155
1.3275432e-155
1.3048767e-155
1.3161518e-155
1.2864212e-155
1.3237225e-155
1.3235396e-155
1.3106211e-155
1.3150543e-155
1.3265754e-155
1.3287313e-155
1.3235336e-155
3.6741376e-160
3.681178e-160
3.6345037e-160
3.6366245e-160
3.6478131e-160
3.6305271e-160
3.6297069e-160
3.6193434e-160
3.6603771e-160
3.6217253e-160
3.6435436e-160
3.609784e-160
3.5980369e-160
3.6062831e-160
3.6278901e-160
3.6344964e-160
3.640421e-160
3.6616322e-160
3.6444223e-160
3.6211687e-160
3.6115618e-160
3.6180162e-160
3.672519e-160
3.6176269e-160
3.6589867e-160
3.5918419e-160
3.6221421e-160
3.6465234e-160
3.5979573e-160
3.6529374e-160
3.6361847e-160
3.6211713e-160
3.654431e-160
3.6317893e-160
3.618407e-160
3.5961487e-160
3.6094966e-160
3.6508848e-160
3.6432843e-160
3.6556415e-160
3.594676e-160
3.6303323e-160
3.5454904e-160
3.6437449e-160
3.6535792e-160
3.607033e-160
3.6231248e-160
3.6587671e-160
3.660126e-160
3.6457397e-160
1.011199e-164
1.0150075e-164
1.0012515e-164
1.0028583e-164
1.0048669e-164
1.0010465e-164
1.0036375e-164
9.989399e-165
1.0103102e-164
9.9773478e-165
1.0062235e-164
9.9423357e-165
9.928491e-165
9.927959e-165
1.0046868e-164
1.0039101e-164
1.0028864e-164
1.0103712e-164
1.001648e-164
9.9591387e-165
9.9656829e-165
9.9458821e-165
1.0152613e-164
9.9733653e-165
1.0083598e-164
9.8835967e-165
9.9900439e-165
1.0067385e-164
9.9342681e-165
1.008935e-164
9.9834283e-165
9.9779517e-165
1.0072223e-164
1.0016852e-164
9.9794227e-165
9.8926695e-165
9.9498356e-165
1.0044023e-164
1.0057743e-164
1.0049276e-164
9.9142693e-165
1.0006353e-164
9.7771695e-165
1.0024857e-164
1.0079299e-164
9.9433437e-165
9.9989912e-165
1.0096435e-164
1.0092179e-164
1.003031e-164
2.7857965e-169
2.7994772e-169
2.7638779e-169
2.7646933e-169
2.7697565e-169
2.7577635e-169
2.7692733e-169
2.7591654e-169
2.7871855e-169
2.7507529e-169
2.7721141e-169
2.7378327e-169
2.7388893e-169
2.7311915e-169
2.7810107e-169
2.7692053e-169
2.7624439e-169
2.7872506e-169
2.7558427e-169
2.7383601e-169
2.7515972e-169
2.7364343e-169
2.7988724e-169
2.7492937e-169
2.7816226e-169
2.7283629e-169
2.7548814e-169
2.7774036e-169
2.7379224e-169
2.7819293e-169
2.750112e-169
2.7501994e-169
2.7761274e-169
2.758219e-169
2.7477774e-169
2.7243613e-169
2.7443872e-169
2.7573447e-169
2.7759466e-169
2.76209e-169
2.7424835e-169
2.7576464e-169
2.6993268e-169
2.7633183e-169
2.7764393e-169
2.745378e-169
2.7573988e-169
2.7810062e-169
2.7866413e-169
2.7555031e-169
7.6815546e-174
7.7224988e-174
7.6247911e-174
7.6181424e-174
7.6309295e-174
7.6063659e-174
7.6413752e-174
7.6420997e-174
7.6809654e-174
7.5835507e-174
7.6168444e-174
7.5328217e-174
7.548336e-174
7.5193761e-174
7.673988e-174
7.643385e-174
7.6069757e-174
7.6831183e-174
7.5866234e-174
7.529773e-174
7.5935384e-174
7.5390292e-174
7.7033552e-174
7.5817609e-174
7.6668922e-174
7.545468e-174
7.5922087e-174
7.6510201e-174
7.5497534e-174
7.6718075e-174
7.5966614e-174
7.5775049e-174
7.662242e-174
7.601128e-174
7.566715e-174
7.5141675e-174
7.5726491e-174
7.579354e-174
7.6612868e-174
7.5942936e-174
7.5847626e-174
7.6118428e-174
7.476546e-174
7.6427554e-174
7.6577951e-174
7.5825472e-174
7.60496e-174
7.6749737e-174
7.6857639e-174
7.5820929e-174
2.1208083e-178
2.1277204e-178
2.1027423e-178
2.1008151e-178
2.0984493e-178
2.1011701e-178
2.1086823e-178
2.1162021e-178
2.1192196e-178
2.0899966e-178
2.0912588e-178
2.0752383e-178
2.0797268e-178
2.0671668e-178
2.1142912e-178
2.109892e-178
2.0936971e-178
2.1184938e-178
2.0840818e-178
2.0722473e-178
2.0963237e-178
2.0769967e-178
2.1210033e-178
2.0859262e-178
2.1116514e-178
2.0855421e-178
2.0920183e-178
2.1094103e-178
2.0836625e-178
2.1178713e-178
2.0958238e-178
2.0879388e-178
2.1125983e-178
2.0933908e-178
2.0827721e-178
2.0747601e-178
2.0918614e-178
2.0941625e-178
2.1184004e-178
2.0924178e-178
2.0897087e-178
2.1015393e-178
2.071429e-178
2.1135097e-178
2.1149877e-178
2.0896812e-178
2.0962727e-178
2.125193e-178
2.1168173e-178
2.0910082e-178
5.8492212e-183
5.8586733e-183
5.7888388e-183
5.8010569e-183
5.7707989e-183
5.8113271e-183
5.8200077e-183
5.843298e-183
5.8587572e-183
5.7616163e-183
5.7552545e-183
5.740064e-183
5.7274866e-183
5.6862644e-183
5.8274422e-183
5.8166658e-183
5.7619128e-183
5.8411741e-183
5.7372646e-183
5.7148427e-183
5.7893849e-183
5.7165423e-183
5.8317418e-183
5.7395444e-183
5.8161584e-183
5.7500085e-183
5.7589541e-183
5.8232935e-183
5.7416702e-183
5.8211218e-183
5.7838787e-183
5.7532174e-183
5.8150811e-183
5.768354e-183
5.7371296e-183
5.7293727e-183
5.7789432e-183
5.7839268e-183
5.855524e-183
5.7938987e-183
5.7445344e-183
5.7966846e-183
5.7352512e-183
5.827395e-183
5.8291978e-183
5.7572205e-183
5.7784545e-183
5.8792152e-183
5.8253504e-183
5.7634086e-183
1.6102073e-187
1.6125712e-187
1.5904044e-187
1.5988526e-187
1.5880704e-187
1.6055773e-187
1.6077044e-187
1.6100585e-187
1.6181687e-187
1.5867586e-187
1.5882813e-187
1.5862236e-187
1.5808696e-187
1.5704198e-187
1.6034865e-187
1.6011109e-187
1.5874635e-187
1.6094852e-187
1.5822163e-187
1.5747519e-187
1.5982653e-187
1.5734536e-187
1.6043373e-187
1.5812812e-187
1.6022653e-187
1.5843669e-187
1.5836794e-187
1.6057469e-187
1.5821766e-187
1.5962313e-187
1.5963223e-187
1.5854093e-187
1.5999017e-187
1.5895703e-187