/*--------------------------------*- C++ -*----------------------------------*\
  =========                 |
  \\      /  F ield         | OpenFOAM: The Open Source CFD Toolbox
   \\    /   O peration     | Website:  https://openfoam.org
    \\  /    A nd           | Version:  11
     \\/     M anipulation  |
\*---------------------------------------------------------------------------*/
FoamFile
{
    format      ascii;
    class       volScalarField;
    location    "0.5";
    object      p;
}
// * * * * * * * * * * * * * * * * * * * * * * * * * * * * * * * * * * * * * //

dimensions      [1 -1 -2 0 0 0 0];

internalField   nonuniform List<scalar> 
6000
(
4.9449507e+121
4.9449506e+121
4.9449504e+121
4.9449499e+121
4.9449499e+121
4.94495e+121
4.9449504e+121
4.9449506e+121
4.9449506e+121
4.9449504e+121
4.9449505e+121
4.9449503e+121
4.9449504e+121
4.9449502e+121
4.9449501e+121
4.9449501e+121
4.9449499e+121
4.9449498e+121
4.9449498e+121
4.94495e+121
4.9449503e+121
4.9449503e+121
4.9449506e+121
4.9449507e+121
4.9449505e+121
4.9449499e+121
4.9449496e+121
4.9449495e+121
4.9449491e+121
4.944949e+121
4.9449491e+121
4.9449492e+121
4.9449497e+121
4.9449498e+121
4.9449497e+121
4.9449495e+121
4.9449494e+121
4.9449493e+121
4.9449492e+121
4.9449494e+121
4.9449497e+121
4.9449497e+121
4.9449494e+121
4.9449495e+121
4.9449493e+121
4.9449493e+121
4.944949e+121
4.9449491e+121
4.9449488e+121
4.9449488e+121
4.339336e+121
4.339336e+121
4.339336e+121
4.339337e+121
4.3393369e+121
4.339337e+121
4.339336e+121
4.339336e+121
4.3393364e+121
4.3393371e+121
4.3393363e+121
4.339337e+121
4.3393361e+121
4.3393371e+121
4.339337e+121
4.3393363e+121
4.3393372e+121
4.3393375e+121
4.3393374e+121
4.3393374e+121
4.3393368e+121
4.3393378e+121
4.3393371e+121
4.3393362e+121
4.339336e+121
4.339337e+121
4.3393367e+121
4.3393353e+121
4.339336e+121
4.339336e+121
4.3393359e+121
4.339336e+121
4.3393349e+121
4.3393351e+121
4.3393355e+121
4.3393363e+121
4.3393357e+121
4.3393362e+121
4.3393367e+121
4.3393366e+121
4.3393357e+121
4.3393354e+121
4.3393367e+121
4.3393358e+121
4.3393362e+121
4.3393355e+121
4.339336e+121
4.3393348e+121
4.3393354e+121
4.3393351e+121
3.5859729e+121
3.5859714e+121
3.5859672e+121
3.5859611e+121
3.5859598e+121
3.5859628e+121
3.5859684e+121
3.5859714e+121
3.5859708e+121
3.5859665e+121
3.5859686e+121
3.5859659e+121
3.5859682e+121
3.5859647e+121
3.5859661e+121
3.5859671e+121
3.5859619e+121
3.58596e+121
3.58596e+121
3.5859618e+121
3.5859663e+121
3.5859636e+121
3.5859659e+121
3.58597e+121
3.5859692e+121
3.5859631e+121
3.5859619e+121
3.5859645e+121
3.5859598e+121
3.5859589e+121
3.5859613e+121
3.5859623e+121
3.5859684e+121
3.5859702e+121
3.5859682e+121
3.5859649e+121
3.5859628e+121
3.5859609e+121
3.5859598e+121
3.5859618e+121
3.5859678e+121
3.5859682e+121
3.5859631e+121
3.5859639e+121
3.5859629e+121
3.5859663e+121
3.5859637e+121
3.585966e+121
3.5859638e+121
3.5859672e+121
2.932836e+121
2.9328361e+121
2.9328349e+121
2.9328268e+121
2.9328276e+121
2.9328241e+121
2.9328317e+121
2.9328331e+121
2.9328327e+121
2.9328335e+121
2.9328397e+121
2.9328364e+121
2.9328389e+121
2.9328311e+121
2.932829e+121
2.9328368e+121
2.9328364e+121
2.9328369e+121
2.9328379e+121
2.9328371e+121
2.9328403e+121
2.9328361e+121
2.9328434e+121
2.9328465e+121
2.9328441e+121
2.9328345e+121
2.932835e+121
2.93284e+121
2.9328341e+121
2.9328307e+121
2.932827e+121
2.9328293e+121
2.9328368e+121
2.9328356e+121
2.9328361e+121
2.9328311e+121
2.9328402e+121
2.9328395e+121
2.9328355e+121
2.9328337e+121
2.9328386e+121
2.932841e+121
2.9328342e+121
2.93284e+121
2.9328352e+121
2.9328329e+121
2.9328283e+121
2.9328338e+121
2.9328286e+121
2.932825e+121
2.3947592e+121
2.3947628e+121
2.3947708e+121
2.3947804e+121
2.3947825e+121
2.3947752e+121
2.3947683e+121
2.3947612e+121
2.3947611e+121
2.3947691e+121
2.3947685e+121
2.3947722e+121
2.3947686e+121
2.3947734e+121
2.394771e+121
2.3947743e+121
2.3947844e+121
2.394788e+121
2.3947874e+121
2.3947814e+121
2.3947737e+121
2.394778e+121
2.3947764e+121
2.3947681e+121
2.3947677e+121
2.3947756e+121
2.3947773e+121
2.3947739e+121
2.3947807e+121
2.3947795e+121
2.3947708e+121
2.3947688e+121
2.3947604e+121
2.394758e+121
2.3947645e+121
2.3947702e+121
2.3947803e+121
2.3947851e+121
2.3947864e+121
2.3947822e+121
2.3947728e+121
2.3947729e+121
2.3947809e+121
2.3947818e+121
2.3947809e+121
2.394773e+121
2.3947754e+121
2.3947715e+121
2.3947691e+121
2.3947585e+121
1.9549263e+121
1.9549265e+121
1.9549309e+121
1.9549399e+121
1.9549396e+121
1.954941e+121
1.9549335e+121
1.9549292e+121
1.9549273e+121
1.9549268e+121
1.9549223e+121
1.9549251e+121
1.9549235e+121
1.9549317e+121
1.9549338e+121
1.9549278e+121
1.9549282e+121
1.9549266e+121
1.9549259e+121
1.954925e+121
1.9549201e+121
1.9549229e+121
1.9549164e+121
1.9549123e+121
1.9549144e+121
1.9549234e+121
1.9549221e+121
1.9549189e+121
1.9549252e+121
1.9549296e+121
1.9549326e+121
1.9549293e+121
1.9549201e+121
1.9549202e+121
1.9549204e+121
1.9549274e+121
1.9549216e+121
1.9549217e+121
1.9549268e+121
1.9549294e+121
1.9549239e+121
1.9549229e+121
1.9549307e+121
1.9549267e+121
1.954932e+121
1.9549356e+121
1.9549389e+121
1.9549342e+121
1.9549355e+121
1.9549364e+121
1.5958088e+121
1.5958072e+121
1.5958051e+121
1.5958039e+121
1.595803e+121
1.5958045e+121
1.5958032e+121
1.5958054e+121
1.5958059e+121
1.5958043e+121
1.5958043e+121
1.5958049e+121
1.5958058e+121
1.5958057e+121
1.5958067e+121
1.5958028e+121
1.5957992e+121
1.5957972e+121
1.5957984e+121
1.5958019e+121
1.5958018e+121
1.595798e+121
1.5957953e+121
1.5957982e+121
1.5958001e+121
1.5958002e+121
1.595801e+121
1.5958012e+121
1.5957998e+121
1.5958024e+121
1.5958079e+121
1.5958073e+121
1.595805e+121
1.5958047e+121
1.5958012e+121
1.5958015e+121
1.5957941e+121
1.5957907e+121
1.5957928e+121
1.5957956e+121
1.5957982e+121
1.5957987e+121
1.595798e+121
1.5957967e+121
1.5958003e+121
1.5958052e+121
1.5958045e+121
1.5958051e+121
1.59581e+121
1.595817e+121
1.3026498e+121
1.3026495e+121
1.3026464e+121
1.3026443e+121
1.3026434e+121
1.302644e+121
1.3026451e+121
1.302648e+121
1.3026496e+121
1.3026483e+121
1.3026484e+121
1.3026485e+121
1.3026481e+121
1.3026461e+121
1.3026465e+121
1.302646e+121
1.3026446e+121
1.3026444e+121
1.3026432e+121
1.3026446e+121
1.3026464e+121
1.3026461e+121
1.3026465e+121
1.3026484e+121
1.3026491e+121
1.3026498e+121
1.3026512e+121
1.3026501e+121
1.3026482e+121
1.3026464e+121
1.3026463e+121
1.3026472e+121
1.3026495e+121
1.3026499e+121
1.3026493e+121
1.3026468e+121
1.302644e+121
1.3026437e+121
1.3026432e+121
1.3026434e+121
1.302646e+121
1.3026456e+121
1.302644e+121
1.3026446e+121
1.3026442e+121
1.3026438e+121
1.3026442e+121
1.3026436e+121
1.3026457e+121
1.3026481e+121
1.0633475e+121
1.0633471e+121
1.0633454e+121
1.0633448e+121
1.0633453e+121
1.0633483e+121
1.0633493e+121
1.0633512e+121
1.0633515e+121
1.063349e+121
1.0633473e+121
1.0633457e+121
1.0633456e+121
1.063345e+121
1.0633463e+121
1.0633459e+121
1.063345e+121
1.0633454e+121
1.0633447e+121
1.0633449e+121
1.063348e+121
1.0633507e+121
1.0633519e+121
1.0633526e+121
1.0633516e+121
1.063351e+121
1.0633495e+121
1.0633488e+121
1.063348e+121
1.0633466e+121
1.0633464e+121
1.063348e+121
1.0633521e+121
1.063353e+121
1.0633521e+121
1.0633503e+121
1.0633496e+121
1.0633509e+121
1.063349e+121
1.0633484e+121
1.0633494e+121
1.063349e+121
1.0633482e+121
1.0633476e+121
1.0633467e+121
1.0633457e+121
1.0633471e+121
1.0633464e+121
1.0633456e+121
1.0633456e+121
8.6800683e+120
8.680067e+120
8.6800675e+120
8.6800638e+120
8.680072e+120
8.68009e+120
8.6800846e+120
8.6800845e+120
8.6800834e+120
8.6800891e+120
8.6800813e+120
8.6800797e+120
8.6800896e+120
8.6800882e+120
8.6800843e+120
8.6800852e+120
8.680093e+120
8.6801106e+120
8.6801211e+120
8.6801165e+120
8.6801218e+120
8.6801249e+120
8.6801195e+120
8.6801128e+120
8.6801073e+120
8.680088e+120
8.6800784e+120
8.6800827e+120
8.6800882e+120
8.6800912e+120
8.6800929e+120
8.6800961e+120
8.680112e+120
8.6801226e+120
8.6801161e+120
8.6801099e+120
8.6801131e+120
8.6801126e+120
8.680092e+120
8.6800813e+120
8.6800785e+120
8.6800801e+120
8.6800764e+120
8.6800639e+120
8.6800575e+120
8.6800488e+120
8.6800458e+120
8.6800597e+120
8.6800712e+120
8.680076e+120
7.0855387e+120
7.0855422e+120
7.0855487e+120
7.08554e+120
7.0855388e+120
7.0855342e+120
7.0855388e+120
7.0855346e+120
7.0855317e+120
7.0855432e+120
7.0855511e+120
7.0855648e+120
7.0855756e+120
7.0855755e+120
7.0855603e+120
7.0855607e+120
7.0855667e+120
7.0855678e+120
7.0855596e+120
7.085556e+120
7.0855415e+120
7.0855319e+120
7.0855265e+120
7.085519e+120
7.0855216e+120
7.0855211e+120
7.0855227e+120
7.0855249e+120
7.0855343e+120
7.0855497e+120
7.0855569e+120
7.0855453e+120
7.0855361e+120
7.0855316e+120
7.0855297e+120
7.0855267e+120
7.0855208e+120
7.0855179e+120
7.0855143e+120
7.0855146e+120
7.0855082e+120
7.0855034e+120
7.0855008e+120
7.0854994e+120
7.085495e+120
7.0855014e+120
7.0855025e+120
7.0855156e+120
7.0855273e+120
7.0855269e+120
5.7839125e+120
5.7839113e+120
5.7839096e+120
5.7839111e+120
5.7839091e+120
5.7838995e+120
5.7839046e+120
5.7839072e+120
5.783909e+120
5.7839076e+120
5.7839101e+120
5.7839079e+120
5.7839057e+120
5.7839085e+120
5.7839055e+120
5.7839031e+120
5.7839023e+120
5.783891e+120
5.7838846e+120
5.7838866e+120
5.7838804e+120
5.7838788e+120
5.7838824e+120
5.783887e+120
5.7838813e+120
5.7838842e+120
5.7838925e+120
5.783896e+120
5.7838956e+120
5.783903e+120
5.783909e+120
5.7839109e+120
5.7839015e+120
5.7838895e+120
5.7838923e+120
5.7838913e+120
5.7838947e+120
5.7839007e+120
5.7839088e+120
5.7839115e+120
5.7838992e+120
5.7838866e+120
5.7838808e+120
5.7838824e+120
5.7838835e+120
5.7838934e+120
5.783902e+120
5.783901e+120
5.7838982e+120
5.7838929e+120
4.7213788e+120
4.7213762e+120
4.7213696e+120
4.7213758e+120
4.7213721e+120
4.7213725e+120
4.7213675e+120
4.7213675e+120
4.7213703e+120
4.7213618e+120
4.721353e+120
4.7213446e+120
4.7213407e+120
4.721343e+120
4.7213489e+120
4.7213481e+120
4.721346e+120
4.7213459e+120
4.7213517e+120
4.7213526e+120
4.7213591e+120
4.7213607e+120
4.7213578e+120
4.7213618e+120
4.7213625e+120
4.7213595e+120
4.7213671e+120
4.7213741e+120
4.7213683e+120
4.7213628e+120
4.7213609e+120
4.7213691e+120
4.7213705e+120
4.7213698e+120
4.7213789e+120
4.7213819e+120
4.7213928e+120
4.7213958e+120
4.7214003e+120
4.721394e+120
4.7213889e+120
4.7213796e+120
4.7213722e+120
4.7213698e+120
4.7213729e+120
4.7213716e+120
4.7213664e+120
4.7213609e+120
4.7213595e+120
4.7213638e+120
3.8540121e+120
3.8540125e+120
3.854012e+120
3.8540093e+120
3.8540123e+120
3.8540178e+120
3.854017e+120
3.8540148e+120
3.8540157e+120
3.8540131e+120
3.8540112e+120
3.8540135e+120
3.854014e+120
3.854012e+120
3.8540117e+120
3.8540122e+120
3.8540113e+120
3.8540138e+120
3.8540149e+120
3.8540149e+120
3.8540203e+120
3.8540225e+120
3.8540204e+120
3.8540236e+120
3.8540334e+120
3.8540346e+120
3.8540326e+120
3.8540337e+120
3.8540342e+120
3.8540305e+120
3.854028e+120
3.8540246e+120
3.8540254e+120
3.8540274e+120
3.8540239e+120
3.8540279e+120
3.8540291e+120
3.8540289e+120
3.8540295e+120
3.8540273e+120
3.8540313e+120
3.8540356e+120
3.8540337e+120
3.854033e+120
3.854034e+120
3.854027e+120
3.8540192e+120
3.8540168e+120
3.8540202e+120
3.8540269e+120
3.146e+120
3.1460006e+120
3.1460041e+120
3.1460003e+120
3.1460058e+120
3.1460075e+120
3.1460125e+120
3.1460115e+120
3.1460128e+120
3.1460161e+120
3.1460188e+120
3.1460202e+120
3.1460174e+120
3.1460175e+120
3.1460162e+120
3.1460138e+120
3.1460105e+120
3.1460073e+120
3.1460083e+120
3.146011e+120
3.1460151e+120
3.1460182e+120
3.1460219e+120
3.146023e+120
3.1460271e+120
3.1460325e+120
3.1460298e+120
3.1460284e+120
3.1460319e+120
3.1460316e+120
3.1460341e+120
3.1460309e+120
3.1460293e+120
3.1460324e+120
3.1460226e+120
3.1460244e+120
3.1460175e+120
3.1460151e+120
3.1460146e+120
3.1460174e+120
3.1460178e+120
3.1460229e+120
3.146025e+120
3.1460241e+120
3.1460197e+120
3.1460197e+120
3.1460207e+120
3.1460236e+120
3.1460242e+120
3.1460236e+120
2.5680671e+120
2.5680689e+120
2.5680707e+120
2.5680718e+120
2.568072e+120
2.5680703e+120
2.5680733e+120
2.5680772e+120
2.5680779e+120
2.5680798e+120
2.5680797e+120
2.5680767e+120
2.5680733e+120
2.568075e+120
2.5680763e+120
2.568073e+120
2.5680706e+120
2.5680699e+120
2.5680759e+120
2.5680792e+120
2.5680807e+120
2.5680814e+120
2.5680859e+120
2.5680842e+120
2.5680827e+120
2.5680839e+120
2.5680834e+120
2.5680841e+120
2.5680842e+120
2.5680857e+120
2.5680913e+120
2.5680919e+120
2.5680911e+120
2.5680911e+120
2.5680898e+120
2.5680893e+120
2.5680834e+120
2.5680817e+120
2.5680811e+120
2.568081e+120
2.5680788e+120
2.5680765e+120
2.5680795e+120
2.5680767e+120
2.568076e+120
2.5680781e+120
2.5680819e+120
2.5680878e+120
2.5680879e+120
2.5680848e+120
2.0963081e+120
2.0963094e+120
2.0963082e+120
2.0963101e+120
2.0963071e+120
2.0963059e+120
2.0963061e+120
2.0963093e+120
2.0963082e+120
2.0963079e+120
2.0963088e+120
2.0963063e+120
2.0963049e+120
2.0963045e+120
2.0963057e+120
2.096305e+120
2.0963056e+120
2.0963076e+120
2.0963093e+120
2.0963106e+120
2.0963077e+120
2.096306e+120
2.096309e+120
2.0963107e+120
2.0963092e+120
2.096305e+120
2.0963049e+120
2.0963045e+120
2.0963046e+120
2.0963063e+120
2.096306e+120
2.0963066e+120
2.0963102e+120
2.0963095e+120
2.0963113e+120
2.0963077e+120
2.0963079e+120
2.0963058e+120
2.0963041e+120
2.0963047e+120
2.096307e+120
2.0963054e+120
2.0963065e+120
2.0963059e+120
2.0963102e+120
2.0963105e+120
2.0963124e+120
2.0963151e+120
2.096316e+120
2.0963167e+120
1.7112073e+120
1.7112065e+120
1.7112064e+120
1.7112074e+120
1.7112047e+120
1.7112053e+120
1.7112046e+120
1.7112014e+120
1.7111999e+120
1.7111992e+120
1.711201e+120
1.7112018e+120
1.7112023e+120
1.711202e+120
1.711201e+120
1.7112019e+120
1.7112024e+120
1.7112038e+120
1.7112008e+120
1.7112003e+120
1.711199e+120
1.7111989e+120
1.711198e+120
1.7111993e+120
1.7111982e+120
1.711197e+120
1.7111989e+120
1.7111989e+120
1.7111998e+120
1.7112e+120
1.711196e+120
1.7111963e+120
1.7111996e+120
1.7112033e+120
1.7112051e+120
1.711203e+120
1.7112062e+120
1.7112046e+120
1.7112034e+120
1.7112043e+120
1.7112067e+120
1.7112095e+120
1.7112096e+120
1.7112106e+120
1.7112106e+120
1.7112132e+120
1.7112148e+120
1.7112139e+120
1.711213e+120
1.7112148e+120
1.3968438e+120
1.3968436e+120
1.3968448e+120
1.3968445e+120
1.3968433e+120
1.3968436e+120
1.3968444e+120
1.3968421e+120
1.396843e+120
1.3968428e+120
1.3968416e+120
1.3968432e+120
1.3968448e+120
1.3968462e+120
1.3968455e+120
1.3968456e+120
1.3968456e+120
1.3968469e+120
1.3968453e+120
1.3968441e+120
1.3968453e+120
1.3968468e+120
1.3968451e+120
1.3968437e+120
1.3968432e+120
1.3968458e+120
1.3968469e+120
1.3968483e+120
1.3968485e+120
1.3968473e+120
1.3968464e+120
1.3968455e+120
1.396844e+120
1.3968452e+120
1.3968466e+120
1.3968481e+120
1.3968492e+120
1.3968513e+120
1.396853e+120
1.3968532e+120
1.3968529e+120
1.3968551e+120
1.3968567e+120
1.396857e+120
1.3968555e+120
1.3968566e+120
1.396859e+120
1.396859e+120
1.3968574e+120
1.3968566e+120
1.1402355e+120
1.1402359e+120
1.1402363e+120
1.1402362e+120
1.1402366e+120
1.1402362e+120
1.1402367e+120
1.140238e+120
1.1402404e+120
1.1402407e+120
1.1402391e+120
1.1402386e+120
1.140239e+120
1.1402399e+120
1.1402411e+120
1.1402411e+120
1.1402406e+120
1.1402409e+120
1.1402419e+120
1.1402424e+120
1.1402432e+120
1.1402434e+120
1.1402439e+120
1.1402431e+120
1.140244e+120
1.1402448e+120
1.1402435e+120
1.1402438e+120
1.1402451e+120
1.140245e+120
1.1402466e+120
1.1402464e+120
1.1402442e+120
1.140242e+120
1.140242e+120
1.1402423e+120
1.140241e+120
1.1402419e+120
1.1402428e+120
1.1402436e+120
1.1402441e+120
1.140244e+120
1.1402449e+120
1.140245e+120
1.1402458e+120
1.140245e+120
1.140246e+120
1.1402469e+120
1.1402464e+120
1.1402451e+120
9.3077094e+119
9.3077083e+119
9.3077127e+119
9.3077216e+119
9.3077348e+119
9.3077374e+119
9.3077343e+119
9.3077405e+119
9.3077416e+119
9.3077436e+119
9.3077455e+119
9.307742e+119
9.3077325e+119
9.3077242e+119
9.3077294e+119
9.3077341e+119
9.3077343e+119
9.3077215e+119
9.3077266e+119
9.3077397e+119
9.3077397e+119
9.3077385e+119
9.3077473e+119
9.3077615e+119
9.307768e+119
9.3077526e+119
9.3077437e+119
9.3077377e+119
9.307742e+119
9.307753e+119
9.3077633e+119
9.3077841e+119
9.3077846e+119
9.3077717e+119
9.3077755e+119
9.3077679e+119
9.3077469e+119
9.3077347e+119
9.3077291e+119
9.3077319e+119
9.3077411e+119
9.3077409e+119
9.307734e+119
9.307739e+119
9.3077512e+119
9.3077551e+119
9.3077449e+119
9.3077376e+119
9.3077388e+119
9.3077464e+119
7.5978426e+119
7.5978404e+119
7.5978487e+119
7.597858e+119
7.5978551e+119
7.5978572e+119
7.5978599e+119
7.5978561e+119
7.5978475e+119
7.5978443e+119
7.5978493e+119
7.5978537e+119
7.5978509e+119
7.5978475e+119
7.5978464e+119
7.5978515e+119
7.5978588e+119
7.5978518e+119
7.5978404e+119
7.5978431e+119
7.5978441e+119
7.5978469e+119
7.5978496e+119
7.5978657e+119
7.5978663e+119
7.5978609e+119
7.5978687e+119
7.5978576e+119
7.5978362e+119
7.5978359e+119
7.5978336e+119
7.5978412e+119
7.5978443e+119
7.5978488e+119
7.5978609e+119
7.5978744e+119
7.5978721e+119
7.5978751e+119
7.5978739e+119
7.5978725e+119
7.5978638e+119
7.5978614e+119
7.5978553e+119
7.5978627e+119
7.5978696e+119
7.5978812e+119
7.5978713e+119
7.5978588e+119
7.5978601e+119
7.5978646e+119
6.2020581e+119
6.2020617e+119
6.2020589e+119
6.2020633e+119
6.2020577e+119
6.2020577e+119
6.202059e+119
6.2020605e+119
6.2020631e+119
6.2020621e+119
6.2020576e+119
6.2020546e+119
6.202057e+119
6.2020659e+119
6.2020658e+119
6.2020726e+119
6.2020785e+119
6.2020899e+119
6.2020906e+119
6.2020876e+119
6.20209e+119
6.2020912e+119
6.2020918e+119
6.2020875e+119
6.2020882e+119
6.202096e+119
6.2020984e+119
6.2020888e+119
6.2020686e+119
6.2020641e+119
6.2020642e+119
6.2020519e+119
6.2020538e+119
6.2020632e+119
6.2020718e+119
6.2020892e+119
6.2021074e+119
6.2021207e+119
6.2021244e+119
6.202121e+119
6.2021049e+119
6.2021021e+119
6.2021004e+119
6.2021077e+119
6.2021017e+119
6.2021008e+119
6.2021001e+119
6.202106e+119
6.2021047e+119
6.2020981e+119
5.0627106e+119
5.0627108e+119
5.0626964e+119
5.0626933e+119
5.0626961e+119
5.0626951e+119
5.0626953e+119
5.0626965e+119
5.0627007e+119
5.0627055e+119
5.0626973e+119
5.0626932e+119
5.0626963e+119
5.0627001e+119
5.062698e+119
5.0627004e+119
5.0627029e+119
5.0627109e+119
5.062725e+119
5.0627268e+119
5.0627323e+119
5.0627327e+119
5.062729e+119
5.0627171e+119
5.0627155e+119
5.0627149e+119
5.0627021e+119
5.0627004e+119
5.0627031e+119
5.0627083e+119
5.0627169e+119
5.0627211e+119
5.0627337e+119
5.0627436e+119
5.0627439e+119
5.0627399e+119
5.0627457e+119
5.0627419e+119
5.0627391e+119
5.0627328e+119
5.0627331e+119
5.0627377e+119
5.0627391e+119
5.0627421e+119
5.0627373e+119
5.0627282e+119
5.0627256e+119
5.062733e+119
5.0627347e+119
5.0627279e+119
4.1326724e+119
4.1326686e+119
4.1326661e+119
4.1326625e+119
4.1326629e+119
4.1326582e+119
4.1326559e+119
4.1326571e+119
4.1326578e+119
4.132664e+119
4.1326666e+119
4.1326667e+119
4.1326666e+119
4.1326636e+119
4.1326647e+119
4.1326601e+119
4.1326593e+119
4.1326596e+119
4.1326672e+119
4.1326726e+119
4.1326744e+119
4.1326766e+119
4.1326702e+119
4.1326644e+119
4.1326593e+119
4.1326546e+119
4.1326547e+119
4.13266e+119
4.132675e+119
4.1326831e+119
4.1326879e+119
4.1327001e+119
4.1327071e+119
4.1327114e+119
4.1327108e+119
4.1327009e+119
4.132697e+119
4.132687e+119
4.1326823e+119
4.13268e+119
4.1326835e+119
4.1326824e+119
4.1326828e+119
4.13268e+119
4.1326839e+119
4.132678e+119
4.1326753e+119
4.1326748e+119
4.132674e+119
4.1326697e+119
3.3734803e+119
3.3734817e+119
3.3734893e+119
3.3734885e+119
3.3734857e+119
3.3734869e+119
3.373483e+119
3.3734858e+119
3.3734845e+119
3.3734861e+119
3.3734919e+119
3.3734903e+119
3.3734862e+119
3.3734854e+119
3.3734884e+119
3.3734824e+119
3.3734784e+119
3.3734801e+119
3.3734793e+119
3.3734809e+119
3.3734775e+119
3.3734787e+119
3.3734815e+119
3.3734837e+119
3.3734808e+119
3.373482e+119
3.3734923e+119
3.373496e+119
3.3735034e+119
3.3735045e+119
3.3734992e+119
3.3734962e+119
3.3734924e+119
3.3734925e+119
3.3734945e+119
3.3734946e+119
3.3734944e+119
3.3734925e+119
3.3734954e+119
3.3734959e+119
3.3734908e+119
3.3734845e+119
3.3734832e+119
3.3734829e+119
3.3734866e+119
3.3734883e+119
3.3734911e+119
3.3734922e+119
3.373491e+119
3.3734943e+119
2.7537622e+119
2.7537649e+119
2.7537663e+119
2.7537621e+119
2.7537586e+119
2.7537615e+119
2.7537597e+119
2.7537599e+119
2.7537582e+119
2.7537547e+119
2.7537538e+119
2.7537559e+119
2.7537583e+119
2.7537608e+119
2.7537605e+119
2.7537589e+119
2.7537556e+119
2.7537556e+119
2.7537537e+119
2.7537503e+119
2.7537488e+119
2.7537492e+119
2.7537551e+119
2.7537625e+119
2.7537708e+119
2.7537749e+119
2.7537748e+119
2.753777e+119
2.7537772e+119
2.7537721e+119
2.7537672e+119
2.7537582e+119
2.7537547e+119
2.7537547e+119
2.7537533e+119
2.7537567e+119
2.7537546e+119
2.7537538e+119
2.7537551e+119
2.753756e+119
2.7537554e+119
2.7537556e+119
2.7537573e+119
2.7537613e+119
2.7537611e+119
2.7537647e+119
2.7537673e+119
2.7537674e+119
2.7537706e+119
2.7537772e+119
2.2478815e+119
2.247883e+119
2.2478812e+119
2.2478768e+119
2.2478736e+119
2.2478726e+119
2.2478738e+119
2.2478715e+119
2.2478698e+119
2.2478684e+119
2.2478648e+119
2.2478675e+119
2.2478695e+119
2.2478711e+119
2.2478716e+119
2.2478755e+119
2.2478786e+119
2.247877e+119
2.2478753e+119
2.2478739e+119
2.2478759e+119
2.2478751e+119
2.2478766e+119
2.2478806e+119
2.2478881e+119
2.2478914e+119
2.2478901e+119
2.2478938e+119
2.2478918e+119
2.2478865e+119
2.2478835e+119
2.2478807e+119
2.2478798e+119
2.2478789e+119
2.2478765e+119
2.247878e+119
2.247878e+119
2.2478798e+119
2.2478786e+119
2.2478797e+119
2.2478836e+119
2.2478868e+119
2.2478897e+119
2.2478905e+119
2.2478861e+119
2.2478864e+119
2.2478842e+119
2.247882e+119
2.2478839e+119
2.2478855e+119
1.8349252e+119
1.8349264e+119
1.8349275e+119
1.8349298e+119
1.8349311e+119
1.8349296e+119
1.8349322e+119
1.834929e+119
1.8349283e+119
1.8349302e+119
1.8349282e+119
1.8349269e+119
1.8349256e+119
1.8349257e+119
1.8349275e+119
1.8349309e+119
1.8349353e+119
1.8349346e+119
1.8349332e+119
1.8349354e+119
1.8349377e+119
1.8349361e+119
1.8349356e+119
1.8349346e+119
1.834933e+119
1.8349333e+119
1.8349341e+119
1.8349341e+119
1.8349336e+119
1.8349353e+119
1.8349339e+119
1.8349341e+119
1.834934e+119
1.8349343e+119
1.8349363e+119
1.8349367e+119
1.8349391e+119
1.8349424e+119
1.8349411e+119
1.8349402e+119
1.8349429e+119
1.8349448e+119
1.8349454e+119
1.8349421e+119
1.8349404e+119
1.8349388e+119
1.8349366e+119
1.8349354e+119
1.8349351e+119
1.8349327e+119
1.4978368e+119
1.4978364e+119
1.4978375e+119
1.4978408e+119
1.4978433e+119
1.4978428e+119
1.4978428e+119
1.4978427e+119
1.4978439e+119
1.4978438e+119
1.4978449e+119
1.4978439e+119
1.4978446e+119
1.4978464e+119
1.4978469e+119
1.4978466e+119
1.4978474e+119
1.4978476e+119
1.4978483e+119
1.49785e+119
1.4978499e+119
1.4978498e+119
1.4978473e+119
1.497846e+119
1.497843e+119
1.4978408e+119
1.4978398e+119
1.4978395e+119
1.4978405e+119
1.4978448e+119
1.4978469e+119
1.4978479e+119
1.4978475e+119
1.4978481e+119
1.4978509e+119
1.49785e+119
1.4978497e+119
1.4978512e+119
1.4978526e+119
1.4978524e+119
1.497852e+119
1.49785e+119
1.4978493e+119
1.4978491e+119
1.4978524e+119
1.4978493e+119
1.4978479e+119
1.4978468e+119
1.4978464e+119
1.4978465e+119
1.2226823e+119
1.2226809e+119
1.2226802e+119
1.22268e+119
1.2226808e+119
1.2226822e+119
1.222681e+119
1.2226826e+119
1.2226833e+119
1.2226808e+119
1.222682e+119
1.2226811e+119
1.2226813e+119
1.222683e+119
1.2226828e+119
1.2226817e+119
1.2226814e+119
1.2226814e+119
1.222683e+119
1.2226826e+119
1.2226823e+119
1.2226826e+119
1.2226816e+119
1.2226817e+119
1.2226811e+119
1.2226789e+119
1.2226786e+119
1.2226796e+119
1.2226788e+119
1.2226799e+119
1.2226819e+119
1.2226833e+119
1.2226839e+119
1.222685e+119
1.2226851e+119
1.222685e+119
1.2226853e+119
1.2226855e+119
1.2226875e+119
1.2226894e+119
1.2226874e+119
1.2226848e+119
1.2226835e+119
1.2226859e+119
1.2226882e+119
1.2226872e+119
1.2226866e+119
1.2226847e+119
1.222684e+119
1.2226862e+119
9.9807161e+118
9.9807193e+118
9.9807097e+118
9.9806936e+118
9.9806919e+118
9.9806991e+118
9.9807041e+118
9.9807051e+118
9.9806956e+118
9.9806914e+118
9.9806888e+118
9.9806909e+118
9.9806801e+118
9.9806703e+118
9.9806588e+118
9.9806634e+118
9.980672e+118
9.9806716e+118
9.9806753e+118
9.9806687e+118
9.9806738e+118
9.9806807e+118
9.9806996e+118
9.9807003e+118
9.9807011e+118
9.9806998e+118
9.98071e+118
9.9807049e+118
9.9806952e+118
9.9806966e+118
9.9807035e+118
9.9807129e+118
9.9807298e+118
9.9807411e+118
9.9807299e+118
9.9807412e+118
9.9807513e+118
9.9807408e+118
9.9807381e+118
9.9807413e+118
9.9807403e+118
9.9807469e+118
9.9807413e+118
9.9807493e+118
9.9807403e+118
9.9807547e+118
9.9807603e+118
9.9807492e+118
9.9807417e+118
9.9807416e+118
8.1471872e+118
8.1471989e+118
8.1471948e+118
8.1471892e+118
8.1471898e+118
8.1471821e+118
8.1471869e+118
8.1471875e+118
8.1471842e+118
8.1472003e+118
8.1472006e+118
8.1472175e+118
8.1472095e+118
8.147195e+118
8.1471876e+118
8.1471907e+118
8.14719e+118
8.1471858e+118
8.1471789e+118
8.1471809e+118
8.1471803e+118
8.1471915e+118
8.1472039e+118
8.1472058e+118
8.147204e+118
8.1472089e+118
8.1472154e+118
8.1472175e+118
8.147224e+118
8.1472331e+118
8.1472331e+118
8.1472367e+118
8.1472517e+118
8.1472435e+118
8.1472438e+118
8.147246e+118
8.1472349e+118
8.1472294e+118
8.1472275e+118
8.1472162e+118
8.1472201e+118
8.1472308e+118
8.1472358e+118
8.1472307e+118
8.1472199e+118
8.1472223e+118
8.1472112e+118
8.1472024e+118
8.1472017e+118
8.1472014e+118
6.6505036e+118
6.6505042e+118
6.6505094e+118
6.6505168e+118
6.6505295e+118
6.6505309e+118
6.6505243e+118
6.650529e+118
6.6505276e+118
6.6505272e+118
6.6505288e+118
6.6505367e+118
6.6505445e+118
6.6505453e+118
6.6505477e+118
6.6505431e+118
6.6505266e+118
6.650516e+118
6.6505073e+118
6.6505078e+118
6.6505052e+118
6.6505104e+118
6.6505043e+118
6.6505148e+118
6.6505171e+118
6.6505148e+118
6.6505153e+118
6.6505258e+118
6.6505273e+118
6.6505295e+118
6.6505299e+118
6.6505349e+118
6.6505496e+118
6.650545e+118
6.6505486e+118
6.6505435e+118
6.6505298e+118
6.6505289e+118
6.6505233e+118
6.6505261e+118
6.6505263e+118
6.6505193e+118
6.6505191e+118
6.6505139e+118
6.6505133e+118
6.6505035e+118
6.6504928e+118
6.6504896e+118
6.6504963e+118
6.650506e+118
5.4287774e+118
5.4287734e+118
5.4287769e+118
5.4287783e+118
5.4287802e+118
5.4287859e+118
5.4287851e+118
5.4287855e+118
5.4287899e+118
5.4287883e+118
5.4287922e+118
5.4287872e+118
5.4287924e+118
5.4287874e+118
5.428783e+118
5.4287816e+118
5.4287805e+118
5.4287771e+118
5.4287766e+118
5.4287709e+118
5.428772e+118
5.4287697e+118
5.4287667e+118
5.4287745e+118
5.4287839e+118
5.4287842e+118
5.4287827e+118
5.4287812e+118
5.4287748e+118
5.4287707e+118
5.4287786e+118
5.4287844e+118
5.4287909e+118
5.4287937e+118
5.4287937e+118
5.4287966e+118
5.4287965e+118
5.4287919e+118
5.428788e+118
5.4287978e+118
5.4287997e+118
5.4287873e+118
5.4287783e+118
5.4287767e+118
5.4287735e+118
5.4287663e+118
5.4287735e+118
5.4287857e+118
5.4287968e+118
5.4288022e+118
4.4314731e+118
4.4314721e+118
4.4314725e+118
4.4314711e+118
4.4314634e+118
4.4314581e+118
4.4314576e+118
4.4314578e+118
4.4314662e+118
4.4314746e+118
4.4314781e+118
4.431473e+118
4.4314662e+118
4.4314596e+118
4.4314539e+118
4.4314574e+118
4.4314687e+118
4.4314758e+118
4.4314834e+118
4.4314801e+118
4.4314838e+118
4.431482e+118
4.4314892e+118
4.4314894e+118
4.4314957e+118
4.4315011e+118
4.4314989e+118
4.4314914e+118
4.431491e+118
4.4314875e+118
4.4314961e+118
4.4314981e+118
4.431496e+118
4.431496e+118
4.431493e+118
4.4314982e+118
4.4315009e+118
4.4314972e+118
4.4314962e+118
4.431497e+118
4.4315026e+118
4.4314982e+118
4.4314917e+118
4.4314885e+118
4.4314845e+118
4.4314819e+118
4.4314893e+118
4.4315021e+118
4.431503e+118
4.4315002e+118
3.6173837e+118
3.6173847e+118
3.6173836e+118
3.6173854e+118
3.6173804e+118
3.6173767e+118
3.6173758e+118
3.6173759e+118
3.6173718e+118
3.6173695e+118
3.6173661e+118
3.6173665e+118
3.6173638e+118
3.6173671e+118
3.6173695e+118
3.617374e+118
3.6173804e+118
3.6173899e+118
3.6173915e+118
3.6173946e+118
3.6174e+118
3.6174053e+118
3.6174088e+118
3.6174111e+118
3.6174125e+118
3.6174158e+118
3.6174119e+118
3.6174091e+118
3.6174141e+118
3.6174094e+118
3.6174076e+118
3.617408e+118
3.6174062e+118
3.617406e+118
3.617405e+118
3.6174026e+118
3.6174008e+118
3.6174009e+118
3.6173972e+118
3.6173953e+118
3.6173987e+118
3.6174029e+118
3.6174084e+118
3.6174077e+118
3.6174112e+118
3.6174106e+118
3.6174106e+118
3.6174127e+118
3.6174053e+118
3.617401e+118
2.9528496e+118
2.9528502e+118
2.952848e+118
2.9528504e+118
2.9528491e+118
2.9528532e+118
2.9528558e+118
2.9528546e+118
2.9528472e+118
2.9528403e+118
2.9528381e+118
2.9528378e+118
2.9528401e+118
2.9528453e+118
2.9528519e+118
2.9528551e+118
2.9528546e+118
2.9528585e+118
2.9528548e+118
2.9528587e+118
2.9528612e+118
2.9528653e+118
2.9528642e+118
2.9528669e+118
2.9528683e+118
2.9528696e+118
2.9528667e+118
2.9528696e+118
2.9528727e+118
2.9528746e+118
2.9528701e+118
2.9528698e+118
2.9528675e+118
2.9528683e+118
2.9528701e+118
2.9528664e+118
2.9528658e+118
2.9528673e+118
2.9528644e+118
2.9528635e+118
2.9528624e+118
2.9528659e+118
2.9528682e+118
2.9528697e+118
2.9528749e+118
2.9528798e+118
2.9528816e+118
2.9528787e+118
2.9528789e+118
2.9528788e+118
2.4103851e+118
2.4103848e+118
2.4103865e+118
2.4103869e+118
2.4103878e+118
2.4103912e+118
2.4103934e+118
2.4103964e+118
2.410396e+118
2.4103977e+118
2.4104e+118
2.4103971e+118
2.4103986e+118
2.4103998e+118
2.4104022e+118
2.4104055e+118
2.4104036e+118
2.4104004e+118
2.4103992e+118
2.4103981e+118
2.4103997e+118
2.4104003e+118
2.4104016e+118
2.4104004e+118
2.4103991e+118
2.4103989e+118
2.4104017e+118
2.4104036e+118
2.4104041e+118
2.4104088e+118
2.410408e+118
2.410408e+118
2.4104081e+118
2.41041e+118
2.4104092e+118
2.4104097e+118
2.4104108e+118
2.4104123e+118
2.4104141e+118
2.4104153e+118
2.4104147e+118
2.4104149e+118
2.4104113e+118
2.4104128e+118
2.4104136e+118
2.4104181e+118
2.4104193e+118
2.4104202e+118
2.4104262e+118
2.4104284e+118
1.9675865e+118
1.9675861e+118
1.9675877e+118
1.9675835e+118
1.9675834e+118
1.9675845e+118
1.9675856e+118
1.9675885e+118
1.9675926e+118
1.9675954e+118
1.9675958e+118
1.9675965e+118
1.967599e+118
1.9675994e+118
1.9675998e+118
1.9676001e+118
1.9676021e+118
1.9675992e+118
1.967601e+118
1.967598e+118
1.9675987e+118
1.9675978e+118