/*--------------------------------*- C++ -*----------------------------------*\
  =========                 |
  \\      /  F ield         | OpenFOAM: The Open Source CFD Toolbox
   \\    /   O peration     | Website:  https://openfoam.org
    \\  /    A nd           | Version:  11
     \\/     M anipulation  |
\*---------------------------------------------------------------------------*/
FoamFile
{
    format      ascii;
    class       surfaceScalarField;
    location    "0.5";
    object      phi;
}
// * * * * * * * * * * * * * * * * * * * * * * * * * * * * * * * * * * * * * //

dimensions      [0 3 -1 0 0 0 0];

internalField   nonuniform List<scalar> 
11830
(
-3.21849e-11
-3.4430407e-06
-1.2640022e-10
-1.0329165e-05
-3.0119615e-10
-1.7215326e-05
-5.880245e-11
-2.4100569e-05
1.9607867e-10
-3.0986502e-05
6.2408063e-10
-3.7872404e-05
3.4624794e-10
-4.475958e-05
-1.9734024e-11
-5.1645803e-05
-3.4891428e-10
-5.853189e-05
2.3074208e-10
-6.5415118e-05
-4.1174283e-10
-7.2304487e-05
2.2492835e-10
-7.918699e-05
-7.7490211e-10
-8.6077317e-05
-1.358787e-10
-9.2958909e-05
2.1483239e-10
-9.9846665e-05
-9.5932845e-10
-0.00010673554
-3.3441672e-10
-0.00011361689
3.6016028e-10
-0.00012050322
9.7524052e-10
-0.0001273892
1.7150253e-09
-0.00013427413
1.4254433e-10
-0.00014116644
1.4065774e-09
-0.00014804447
7.430434e-10
-0.00015493272
-1.2129534e-09
-0.00016182332
-3.3773267e-09
-0.00016871019
-1.9668536e-09
-0.00017558825
-4.2074593e-10
-0.00018247481
-2.5739797e-09
-0.0001893707
-1.0423071e-09
-0.00019624721
5.1875112e-10
-0.00020313369
1.6303309e-09
-0.00021002337
3.551058e-09
-0.00021690382
1.1117131e-09
-0.00022379926
-6.7489406e-10
-0.00023068385
-2.1916412e-09
-0.00023756873
-5.2173505e-10
-0.00024445027
-1.4666979e-09
-0.00025133855
-5.4191876e-10
-0.00025822314
1.5774881e-09
-0.00026510611
3.032101e-09
-0.00027199073
6.2247656e-10
-0.0002788879
-2.968482e-09
-0.00028577528
7.9898944e-12
-0.00029264599
-2.0848179e-09
-0.00029954313
-1.1555278e-10
-0.00030641975
-2.6797003e-09
-0.00031332032
1.2298752e-10
-0.00032019134
-3.1147802e-09
-0.00032709269
-2.3471562e-10
-0.00033396293
-0.00034086252
-4.9232501e-12
-4.6339802e-06
-1.3458398e-11
-1.3901707e-05
7.1141251e-10
-2.317584e-05
-6.8511815e-11
-3.2435837e-05
7.3981987e-11
-4.1716319e-05
-1.3131568e-09
-5.0965207e-05
-2.4517238e-11
-6.0250699e-05
7.1483945e-10
-6.9512666e-05
1.496673e-09
-7.8774402e-05
-1.7340144e-09
-8.8044876e-05
1.7159618e-09
-9.7335028e-05
-2.3754898e-09
-0.00010658048
3.0172287e-09
-0.00011588102
-2.6183716e-10
-0.00012511823
-2.3557638e-09
-0.00013436079
3.3408692e-09
-0.00014367581
1.0012779e-09
-0.00015293804
9.7154591e-11
-0.00016220784
9.0407484e-11
-0.00017148962
-2.7095594e-09
-0.00018073483
5.0654291e-09
-0.00019002261
-3.8218267e-09
-0.000199235
-4.4079769e-09
-0.00020857963
-1.033539e-09
-0.00021783007
5.7564813e-09
-0.0002271117
-2.1561431e-09
-0.00023631003
-8.7494508e-09
-0.00024560579
4.5153506e-09
-0.0002549312
1.2922121e-10
-0.00026416166
-7.6833e-10
-0.00027344583
5.4106932e-10
-0.00028265263
-7.7313823e-09
-0.00029194686
1.8780102e-09
-0.00030127949
2.7690055e-09
-0.0003104685
6.158007e-09
-0.00031980136
-4.3297986e-09
-0.00032893023
3.755062e-09
-0.0003383991
4.414886e-09
-0.00034761786
-7.8429081e-10
-0.00035684938
-8.052067e-09
-0.000366081
-2.433623e-09
-0.00037535806
1.1542316e-08
-0.00038470588
-8.2452069e-09
-0.0003938306
3.3897233e-09
-0.0004032882
-7.4715094e-09
-0.00041245344
4.7105193e-09
-0.00042171744
-1.2744178e-08
-0.00043090143
6.4120287e-09
-0.00044034529
-3.8333923e-09
-0.00044953492
-0.00045872252
-4.506734e-10
-4.5879483e-06
-2.2168805e-09
-1.3762769e-05
-4.8027468e-09
-2.2950496e-05
-1.3117405e-09
-3.2224414e-05
3.8437556e-09
-4.1405032e-05
8.6983252e-09
-5.060459e-05
5.3403475e-09
-5.9724972e-05
-1.3900628e-09
-6.8832211e-05
-9.4829322e-09
-7.7985715e-05
4.8783371e-09
-8.7415355e-05
-6.8987664e-09
-9.6382371e-05
6.6902806e-09
-0.00010581074
-1.1228628e-08
-0.00011474544
4.7824725e-09
-0.00012422137
3.5391686e-09
-0.00013324325
-2.0859931e-08
-0.00014225252
-8.4737928e-09
-0.00015178567
1.8581175e-10
-0.00016094858
9.2786256e-09
-0.00017014813
2.2647294e-08
-0.00017938289
-1.3231679e-08
-0.00018813268
1.301111e-08
-0.00019790481
2.4572158e-08
-0.00020692664
-5.2358624e-09
-0.00021568539
-3.8739473e-08
-0.00022487924
-8.3186024e-09
-0.00023469757
1.7426195e-08
-0.00024372325
-3.293982e-08
-0.00025241283
-7.0568264e-09
-0.00026225706
1.8290744e-08
-0.00027137278
8.9572125e-09
-0.00028012141
4.9763067e-08
-0.00028986438
1.5665049e-08
-0.00029833888
-1.715516e-08
-0.00030737548
-3.0067132e-08
-0.00031691929
-1.9586835e-08
-0.00032635476
-1.8176948e-08
-0.00033549901
-1.1028949e-08
-0.00034472916
2.0067778e-08
-0.00035417144
6.153771e-08
-0.00036351469
3.9975705e-09
-0.00037160026
-5.4245042e-08
-0.00038092525
8.0256181e-09
-0.00039138744
-1.1461852e-08
-0.00039967978
3.7531687e-08
-0.00040937537
-2.9663442e-08
-0.00041751661
2.5822517e-08
-0.00042811564
-2.6584023e-08
-0.00043620746
4.1901065e-08
-0.00044620707
-0.00045422534
4.1503977e-11
-4.5872221e-06
-7.3242322e-10
-1.3710052e-05
-7.3947936e-09
-2.293404e-05
6.3864582e-10
-3.2294809e-05
-5.1611147e-09
-4.1326148e-05
1.3626965e-08
-5.0781478e-05
2.9129237e-09
-5.9577763e-05
-8.2974021e-10
-6.8825815e-05
2.4243607e-09
-7.7923714e-05
1.8555782e-08
-8.7353842e-05
-1.0228502e-08
-9.5980719e-05
8.5010696e-09
-0.00010573087
-3.0583034e-08
-0.0001145884
-8.7546399e-09
-0.0001243164
3.5410953e-08
-0.00013356486
-1.2650089e-09
-0.00014165591
3.0182469e-09
-0.00015155799
6.0293262e-09
-0.0001606697
-3.9268954e-09
-0.0001697976
1.8616591e-08
-0.00017935129
-2.4935312e-08
-0.00018734049
4.877642e-08
-0.00019816718
2.212023e-08
-0.0002064278
-1.8217763e-08
-0.00021505071
-7.2951336e-08
-0.00022435368
3.2422154e-09
-0.00023492379
4.0650276e-08
-0.00024338672
-4.8974588e-08
-0.00025130107
-3.0597273e-08
-0.00026198105
-3.369024e-08
-0.00027092165
2.1995924e-08
-0.00028048581
7.3238017e-08
-0.00029005724
-1.0709484e-08
-0.00029781505
4.0347068e-09
-0.00030735697
-5.1748538e-08
-0.00031584827
9.8722792e-08
-0.00032739456
-7.0707037e-09
-0.00033433661
-4.7103151e-08
-0.00034381047
-2.2751539e-08
-0.00035368144
5.8512326e-08
-0.00036411885
3.036533e-08
-0.00037015266
-8.4539521e-08
-0.00037961737
7.3293694e-08
-0.00039254932
-6.382382e-08
-0.0003981661
-3.3984432e-08
-0.00040882527
-6.3030054e-08
-0.00041741433
7.477883e-08
-0.00042862107
-7.6261464e-08
-0.00043493349
-5.5815298e-08
-0.00044562015
-0.00045440433
1.5396262e-09
-4.6023804e-06
6.290486e-09
-1.3716407e-05
1.0961792e-08
-2.2999817e-05
3.1010732e-09
-3.2208297e-05
-1.3802485e-08
-4.1154475e-05
-1.6147534e-08
-5.0784819e-05
-1.9095171e-08
-5.9441414e-05
-4.0878404e-10
-6.9040998e-05
2.6727384e-08
-7.8122457e-05
-1.8344054e-09
-8.6989414e-05
1.4761116e-08
-9.5852084e-05
-1.5134776e-08
-0.00010529595
2.3067348e-08
-0.00011485559
-1.1212964e-08
-0.0001240145
1.9429747e-08
-0.0001338258
6.0424319e-08
-0.00014146174
2.3867774e-08
-0.00015095877
-3.4756129e-09
-0.0001600772
-4.324051e-08
-0.0001691709
-5.7220124e-08
-0.00017954105
3.1273749e-08
-0.00018779984
-1.5114566e-08
-0.00019749402
-7.1861202e-08
-0.00020619137
-3.2768358e-09
-0.00021508981
7.4015434e-08
-0.00022458702
1.717542e-08
-0.00023412687
-3.1343152e-08
-0.00024248885
7.0445538e-08
-0.00025187752
-1.2312623e-08
-0.0002609661
-9.5468858e-08
-0.00026986123
-2.6221268e-08
-0.00028128811
-1.0068472e-07
-0.00029038332
-3.0212591e-08
-0.00029831479
8.1894838e-08
-0.0003087077
7.6799853e-08
-0.00031588311
1.3649743e-07
-0.00032780639
6.7714991e-08
-0.00033331747
1.8564536e-08
-0.00034272295
-6.3169358e-08
-0.00035228553
-1.4024678e-07
-0.00036345282
2.5671021e-10
-0.00036991262
1.2598413e-07
-0.00037950846
1.6811647e-08
-0.00039150192
-1.6404637e-08
-0.00039748114
-1.2966411e-07
-0.00040720191
3.8679566e-08
-0.00041876891
-6.6828564e-08
-0.00042682699
-4.5546034e-08
-0.00043457018
-1.9203029e-07
-0.00044383865
-0.00045741175
1.02491e-10
-4.6023453e-06
4.0836067e-09
-1.3796344e-05
1.2364673e-08
-2.2922498e-05
-2.3004078e-10
-3.2128264e-05
2.7334488e-09
-4.1056663e-05
-2.0508473e-08
-5.0591635e-05
-1.4134277e-08
-5.9343628e-05
-6.7647452e-09
-6.8787016e-05
-2.4554155e-09
-7.8187431e-05
-2.0239935e-08
-8.6719848e-05
1.3275321e-08
-9.5868754e-05
-7.6474993e-09
-0.00010502685
4.9196004e-08
-0.00011456107
1.3983976e-08
-0.00012387895
-4.0571421e-08
-0.00013354019
1.6537523e-09
-0.00014149213
-1.2017854e-08
-0.00015056492
-6.4864481e-09
-0.0001603078
-8.4624942e-09
-0.00016882381
-4.4885884e-08
-0.00017965405
2.3557149e-08
-0.00018870783
-6.7323588e-08
-0.00019703327
-4.4695955e-08
-0.00020647196
2.3017418e-08
-0.00021507656
1.02178e-07
-0.00022423906
-1.2916785e-08
-0.0002330102
-3.8138468e-08
-0.00024260959
7.9994366e-08
-0.00025311788
5.9842529e-08
-0.00026034944
4.2587271e-08
-0.00026921283
-4.7489326e-08
-0.00028004344
-1.3357979e-07
-0.00029032617
-1.1707235e-09
-0.00029876379
4.0204489e-09
-0.0003090878
1.07766e-07
-0.00031671885
-9.1836318e-08
-0.00032558304
2.7739906e-09
-0.00033304563
8.9345487e-08
-0.00034354263
4.791388e-08
-0.00035136513
-9.7215589e-08
-0.00036271114
-1.8710516e-08
-0.00037155506
1.4466608e-07
-0.0003793094
-7.4989468e-08
-0.00039025829
1.0359179e-07
-0.00039778947
7.6745554e-08
-0.00040615571
6.9742899e-08
-0.00041719376
-9.7715341e-08
-0.00042472497
3.0527487e-08
-0.0004343631
2.3247255e-08
-0.00044267399
-0.00045742528
-1.0414105e-09
-4.6015215e-06
-2.445681e-09
-1.3835112e-05
-2.1118273e-09
-2.2903963e-05
-1.9265916e-09
-3.2319215e-05
4.2014054e-09
-4.113764e-05
-3.9617693e-09
-5.0767306e-05
9.0332529e-09
-5.9327831e-05
2.6767118e-09
-6.8714059e-05
-7.8640586e-09
-7.8416413e-05
-2.7072667e-10
-8.7039678e-05
3.6057834e-09
-9.5853356e-05
5.9700907e-09
-0.00010508648
-7.8511949e-10
-0.00011454093
7.1420073e-09
-0.00012421468
-3.312717e-08
-0.00013397068
-3.2963242e-08
-0.00014148432
-1.9466311e-08
-0.00015111983
1.0695428e-08
-0.00016164825
3.6170415e-08
-0.00016884718
-9.3685544e-10
-0.00017919761
-4.4610302e-08
-0.00018867975
-3.2813232e-08
-0.00019818487
3.6557886e-08
-0.00020676617
2.5645858e-08
-0.00021574725
1.1727755e-09
-0.00022369162
1.0451732e-08
-0.00023287491
2.3309351e-09
-0.00024346809
-2.0620124e-08
-0.00025219019
4.2879077e-08
-0.0002603472
9.0584591e-08
-0.0002702228
-7.941816e-09
-0.00027885378
-4.1736437e-08
-0.00028977851
-7.5877747e-09
-0.00030028134
-6.5817216e-08
-0.00030985772
1.1501918e-09
-0.00031601133
-1.4667651e-07
-0.00032401906
-6.7981641e-08
-0.00033352128
4.5968133e-08
-0.00034645924
6.2431768e-08
-0.00035267541
5.8304484e-08
-0.00036473784
1.2198129e-08
-0.0003730053
-2.1332276e-08
-0.00038023621
-3.1584039e-08
-0.00039102699
8.5080582e-08
-0.00039754522
1.2259975e-07
-0.00040619264
-1.5619513e-08
-0.00041521204
1.6862089e-08
-0.0004246511
1.3534542e-07
-0.00043437326
1.9448998e-07
-0.00044432899
-0.00045538969
-1.7457014e-10
-4.5849351e-06
-4.3191127e-09
-1.3805666e-05
-4.309126e-09
-2.3007974e-05
-2.4049114e-09
-3.2349202e-05
2.7467668e-09
-4.1239051e-05
4.9044437e-09
-5.101184e-05
1.4208873e-08
-5.9553282e-05
8.564114e-09
-6.9004374e-05
-7.7728551e-09
-7.8318727e-05
9.9694641e-11
-8.7434801e-05
4.5142501e-10
-9.5852668e-05
-3.3767325e-09
-0.00010540498
-1.8589156e-08
-0.00011503682
3.1958443e-09
-0.00012423971
-5.8518807e-09
-0.00013403859
-1.4541604e-08
-0.00014160665
-3.0556048e-09
-0.00015207481
-1.5149343e-08
-0.00016236832
1.872215e-08
-0.00016948915
2.5111256e-08
-0.00017897062
-3.3098219e-09
-0.00018865814
8.6833926e-09
-0.00019926261
3.0825889e-08
-0.00020723445
1.2835832e-08
-0.00021650345
1.1061328e-08
-0.00022448514
2.3388531e-08
-0.00023300027
-2.0573796e-08
-0.00024359849
-3.6986011e-08
-0.00025104481
-3.7854718e-08
-0.00026121883
-2.8297199e-09
-0.00027144201
1.8977643e-08
-0.00027904195
4.9424685e-08
-0.00029086982
1.0339608e-08
-0.00030048712
-1.3609071e-08
-0.00031085549
-5.9338785e-08
-0.00031499728
-7.0162898e-08
-0.00032520272
-9.7405349e-09
-0.0003340614
-1.3286751e-08
-0.00034769175
5.4789118e-09
-0.00035438611
7.133143e-08
-0.00036631534
-1.0209911e-08
-0.00037271843
-4.6261896e-08
-0.00038190007
1.9144377e-08
-0.00039091229
-1.1876245e-08
-0.00039850233
-1.1456529e-08
-0.00040648188
1.2176742e-08
-0.00041675815
-1.9892807e-08
-0.00042482459
6.7446625e-08
-0.00043410206
8.0612414e-08
-0.00044760369
-0.00045554282
-4.1472926e-10
-4.5807644e-06
-2.9406276e-09
-1.3803842e-05
-1.5667619e-09
-2.3010416e-05
1.7114586e-09
-3.2092607e-05
1.3173214e-08
-4.132217e-05
5.6983184e-09
-5.0840879e-05
1.1259198e-08
-5.9824347e-05
1.393967e-09
-6.9005375e-05
-1.8766753e-08
-7.8069388e-05
-1.4761078e-08
-8.7126204e-05
-1.5159568e-08
-9.5852554e-05
-1.5369698e-09
-0.00010582741
-6.3410007e-09
-0.00011488494
1.4660549e-08
-0.00012471622
-5.3270978e-09
-0.00013342142
-1.1479976e-08
-0.00014176985
6.0518167e-09
-0.00015186908
-1.0752288e-08
-0.00016235369
4.1278005e-09
-0.00017024928
5.2070399e-08
-0.00017921447
4.8159918e-08
-0.00018796718
2.4484644e-08
-0.00019873596
1.6249329e-08
-0.0002066822
-2.0050591e-08
-0.00021546566
-1.2159554e-08
-0.00022545405
-3.2483053e-08
-0.00023285422
-1.5544212e-08
-0.00024382878
-2.082273e-08
-0.00025195516
-3.6692935e-08
-0.00026232628
-5.2540068e-09
-0.00027147857
4.0476563e-08
-0.00027983204
1.0942245e-07
-0.00029118163
2.7871295e-08
-0.00029907726
-2.4985873e-08
-0.00030968086
-5.2985965e-08
-0.00031497139
-2.5245684e-08
-0.0003266733
3.5285319e-08
-0.00033372187
-6.063116e-08
-0.00034596514
-1.797611e-08
-0.00035328748
3.3057024e-08
-0.00036489149
-1.1333816e-08
-0.00037267689
-2.4400483e-08
-0.00038050352
-1.5903348e-08
-0.00039069936
-3.0729294e-08
-0.00040024962
-3.8741248e-08
-0.00040684337
5.3255326e-08
-0.00041870417
-2.9663147e-08
-0.00042455962
-3.5961282e-08
-0.00043521867
-5.7066602e-09
-0.00044756177
-0.00045391204
-1.6647266e-10
-4.6009485e-06
3.3704833e-11
-1.3803606e-05
-1.2093773e-09
-2.3007452e-05
3.3094444e-09
-3.1953909e-05
8.9152566e-09
-4.156642e-05
-3.3345143e-09
-5.0577676e-05
-9.3522419e-11
-5.9612365e-05
-5.958269e-10
-6.9014775e-05
5.3544266e-09
-7.822449e-05
-7.9483764e-09
-8.7040388e-05
-2.1194129e-09
-9.6204681e-05
1.16272e-08
-0.00010545961
-2.0145684e-09
-0.00011468138
-6.0026134e-09
-0.00012481265
1.1810688e-09
-0.00013343291
1.2714305e-08
-0.00014164808
3.0759697e-08
-0.00015117119
1.9937088e-08
-0.0001617386
-8.3511873e-09
-0.00016980095
1.0383827e-08
-0.00017977184
6.391102e-09
-0.00018712188
-1.1526079e-08
-0.00019782064
-1.5270618e-08
-0.0002055763
-1.3831152e-08
-0.00021529194
-4.9171659e-08
-0.00022543054
-2.518211e-08
-0.00023273457
1.234973e-08
-0.00024385989
1.6388469e-08
-0.00025309465
8.87865e-09
-0.00026224837
4.5225184e-09
-0.0002714826
9.4115656e-09
-0.00028074569
5.1485501e-08
-0.00028991613
3.5765314e-08
-0.00030016929
-2.2376412e-08
-0.00030822995
-2.2629777e-08
-0.00031496453
1.1337683e-08
-0.00032551417
-3.4516722e-09
-0.00033321644
-8.0555203e-08
-0.00034467405
-4.3922353e-08
-0.00035292188
-1.1469184e-08
-0.00036343367
7.4764138e-09
-0.00037228943
-1.5743997e-08
-0.00038017401
-5.5161774e-08
-0.00039084157
-2.9525666e-08
-0.000398823
-3.9796771e-08
-0.00040801341
-1.2684957e-08
-0.00041749052
6.6575699e-08
-0.00042598296
5.6217933e-08
-0.00043715986
2.5068414e-08
-0.0004446588
-0.00045353297
5.3578285e-10
-4.5871229e-06
1.6633911e-09
-1.3855074e-05
-3.2542427e-09
-2.2989309e-05
-8.4637547e-10
-3.2011129e-05
-3.0713086e-09
-4.1597106e-05
3.1865247e-09
-5.0550619e-05
-3.7300662e-09
-5.9555835e-05
-2.542773e-09
-6.8764081e-05
1.3326361e-08
-7.8242369e-05
1.0406352e-08
-8.7422063e-05
1.856817e-08
-9.6636578e-05
1.5151635e-08
-0.00010536178
-1.2247391e-09
-0.00011438826
-2.6669329e-08
-0.00012378443
7.1689024e-10
-0.00013320115
1.1536037e-08
-0.00014200327
1.0674951e-09
-0.0001511193
-1.8770966e-08
-0.00016098806
-8.4038447e-09
-0.00016931131
-3.6091252e-08
-0.0001794602
-2.5416713e-08
-0.00018782227
-1.498349e-08
-0.00019783789
-2.1591288e-08
-0.00020611274
6.5951546e-09
-0.00021626926
-1.3438087e-09
-0.00022546693
5.2262429e-09
-0.00023274556
8.3848471e-09
-0.000243867
3.3926955e-08
-0.00025312724
5.6762663e-08
-0.00026226043
2.718073e-08
-0.00027145172
-4.4956699e-08
-0.00027966709
-3.7161929e-08
-0.00028992447
-1.8355825e-08
-0.00030043339
-6.2505576e-09
-0.0003082561
-1.1097068e-08
-0.00031534192
-2.4826017e-08
-0.00032524075
-1.1829561e-08
-0.00033443592
-1.6046289e-08
-0.00034506054
4.8488161e-10
-0.00035566291
-3.3720993e-08
-0.00036354868
-2.6713541e-08
-0.00037316401
-1.6394523e-08
-0.00038188922
-1.0368184e-08
-0.000392191
-2.3521085e-08
-0.00039703989
3.5988323e-08
-0.00040951659
8.7978925e-09
-0.00041732595
7.7711639e-08
-0.00042792535
7.2765221e-08
-0.00043559847
9.7542042e-10
-0.00044350574
-0.00045556666
-2.1391425e-10
-4.5690782e-06
-4.9642315e-10
-1.3865687e-05
6.9132549e-10
-2.2976192e-05
-1.3504829e-09
-3.2075452e-05
-7.2977598e-09
-4.1404078e-05
4.8133986e-09
-5.0400325e-05
3.0325444e-09
-5.9817782e-05
2.1329363e-09
-6.8705883e-05
-2.0973513e-09
-7.8238802e-05
3.795197e-09
-8.7109765e-05
-3.6154976e-09
-9.6626251e-05
-4.4378493e-09
-0.00010582676
5.0254135e-09
-0.00011448477
-6.6240039e-09
-0.00012332967
-6.026416e-09
-0.00013287824
-3.3210599e-09
-0.00014263603
-3.0907725e-08
-0.00015109531
-1.8288323e-08
-0.00016100522
5.5532634e-09
-0.0001691309
-1.8260566e-08
-0.00017898201
-5.1342642e-09
-0.00018867577
1.2472561e-08
-0.00019713987
1.6201472e-08
-0.00020734226
-1.9806555e-08
-0.0002160674
1.1844094e-08
-0.00022538349
3.3123127e-08
-0.00023362125
1.4712941e-08
-0.00024385177
-2.0769419e-09
-0.00025309877
3.2691646e-08
-0.00026221461
2.8008379e-08
-0.00027144023
8.6075501e-09
-0.00027942878
-4.6131143e-08
-0.00028882326
-5.8634397e-08
-0.00029798472
1.7341553e-08
-0.00030834559
-2.3857686e-09
-0.00031578182
1.9472163e-08
-0.00032757714
3.4037092e-08
-0.00033591171
4.7005192e-08
-0.00034381239
1.5647598e-08
-0.00035590282
-7.7518061e-08
-0.00036290036
-8.2254954e-08
-0.00037386218
-3.9877449e-08
-0.00038192305
1.0219563e-08
-0.00039220102
9.4897107e-09
-0.00039755337
7.0219771e-08
-0.0004087062
6.180363e-08
-0.00041876622
-5.3037398e-09
-0.00042738929
-1.9249295e-08
-0.00043365664
-3.9380312e-08
-0.00044442199
-0.00045560192
-5.7678211e-10
-4.565894e-06
-2.4937017e-09
-1.380146e-05
3.4859541e-09
-2.2994528e-05
-2.6439129e-09
-3.2013409e-05
4.7291507e-10
-4.1407979e-05
-5.3201094e-09
-5.0197146e-05
4.4344853e-10
-5.9824056e-05
4.0655688e-09
-6.9017455e-05
-1.4841217e-08
-7.8222125e-05
-1.7050574e-08
-8.7030814e-05
-1.7467942e-08
-9.6627084e-05
-8.3133245e-09
-0.00010580678
5.8062032e-09
-0.00011500879
1.4585423e-08
-0.00012391902
-3.2534762e-09
-0.00013312489
-7.7938077e-09
-0.00014260188
-7.405482e-10
-0.00015110131
1.9125744e-08
-0.00016044333
3.7912604e-09
-0.00016889274
2.4548255e-08
-0.00017943639
6.4820669e-09
-0.00018865903
-1.0924358e-08
-0.00019623555
1.8229229e-08
-0.00020698866
4.7092135e-09
-0.00021665848
-1.2481647e-08
-0.00022521105
3.6837935e-08
-0.00023556492
3.4814784e-08
-0.00024384615
-3.1183781e-08
-0.00025274461
-3.019689e-08
-0.00026308131
-1.0294111e-08
-0.0002704699
4.6837045e-08
-0.00028175065
8.7621223e-09
-0.00028749202
-2.8869103e-09
-0.00029772508
5.7566205e-08
-0.00030952532
2.0065199e-08
-0.00031533979
7.3353043e-08
-0.00032748767
1.9936306e-08
-0.00033583876
2.9736011e-08
-0.00034352834
-4.7594758e-08
-0.00035371953
-3.9086035e-08
-0.00036224743
-7.2278732e-08
-0.0003726459
-5.786171e-08
-0.00038193268
-1.8133964e-08
-0.0003901373
2.5854943e-08
-0.00039820374
-1.0877857e-08
-0.0004075892
-4.5127741e-08
-0.00041704899
-4.6450026e-08
-0.00042685784
-1.155948e-08
-0.00043527633
3.9989081e-08
-0.00044562328
-0.00045558256
1.0339061e-10
-4.5630656e-06
-2.1748001e-10
-1.3801864e-05
-1.7901983e-09
-2.3008641e-05
2.8496084e-09
-3.2068458e-05
6.4692201e-09
-4.126118e-05
-7.4943363e-10
-5.0190661e-05
-3.3991601e-09
-5.9824899e-05
1.6351421e-09
-6.9023457e-05
-5.4656997e-09
-7.8218002e-05
-4.2286049e-09
-8.7416073e-05
5.7764771e-09
-9.6405307e-05
1.7249706e-09
-0.00010576657
-5.8982183e-09
-0.00011499455
-1.8092175e-09
-0.0001243693
7.6964366e-10
-0.00013394442
-3.9861137e-09
-0.00014255645
9.1973322e-09
-0.00015088705
4.056167e-09
-0.00015972247
9.6338099e-11
-0.00016892721
2.463946e-08
-0.00017946711
1.0813461e-08
-0.00018865039
-9.9092807e-09
-0.00019622031
1.7908399e-08
-0.00020655323
5.3841117e-08
-0.00021781362
6.1816932e-09
-0.00022494651
-1.2672565e-08
-0.0002357431
6.0823845e-09
-0.00024297513
3.662221e-09
-0.00025240524
-2.3741786e-08
-0.00026335046
-1.73672e-08
-0.00026967442
-2.3803672e-08
-0.00028300739
5.4746376e-09
-0.00028792868
1.324456e-08
-0.00029907486
-2.9576977e-08
-0.00030974583
2.9374585e-08
-0.00031607777
1.0274792e-08
-0.00032543448
-1.1300249e-09
-0.00033624202
4.1661759e-09
-0.0003450798
-1.7286662e-08
-0.00035309
3.9389809e-08
-0.00036247573
4.3308694e-08
-0.00037265998
-1.4410028e-08
-0.00038187536
-6.31838e-09
-0.00039110545
8.8257364e-09
-0.00039769525
-7.2710038e-08
-0.00040690126
-8.2434067e-08
-0.00041534491
-2.4372499e-08
-0.00042643078
3.7614035e-08
-0.00043887286
7.5209753e-08
-0.00044599277
-0.00045553244
2.311518e-10
-4.5631901e-06
2.0457238e-09
-1.3803977e-05
-3.1320685e-09
-2.3003885e-05
6.1791884e-09
-3.2339226e-05
2.517932e-09
-4.1070576e-05
8.1948458e-09
-5.0380011e-05
-2.0630355e-09
-5.9816819e-05
2.6769236e-09
-6.9278007e-05
8.2771881e-09
-7.7941327e-05
8.002744e-09
-8.7109035e-05
4.2493173e-09
-9.6468423e-05
-9.6394592e-09
-0.00010578569
-1.7503046e-11
-0.00011542417
-5.6055977e-09
-0.00012423353
-9.8817949e-09
-0.00013405964
-1.4760005e-08
-0.00014258689
-1.5118948e-08
-0.00015060374
4.7719409e-09
-0.00016032782
1.4353289e-08
-0.00016898353
2.2366927e-08
-0.0001801357
1.8458722e-08
-0.00018796386
2.1787316e-08
-0.00019694285
5.5141599e-09
-0.00020708786
2.6031388e-08
-0.00021722391
3.6413476e-08
-0.0002246821
-2.021311e-08
-0.0002346414
-1.0526883e-08
-0.00024229359
2.7527279e-08
-0.00025180496
-1.0935265e-09
-0.00026223963
2.1518808e-08
-0.00027019367
-2.835424e-08
-0.0002819355
-1.4536938e-08
-0.00028844787
2.7313432e-08
-0.00029866508
-9.3044087e-08
-0.00030714778
1.3943817e-08
-0.00031848115
-7.173928e-08
-0.00032462087
-2.6085345e-08
-0.00033556134
-3.8480479e-09
-0.00034386166
3.3417413e-08
-0.00035235426
8.0513676e-09
-0.00036266192
6.2188087e-08
-0.00037272216
2.8318103e-08
-0.00038184084
-9.5352872e-09
-0.00039206763
-5.1246942e-08
-0.00039703659
2.5599549e-09
-0.00040669883
1.5382709e-08
-0.00041684708
3.8718086e-08
-0.00042740673
8.3353871e-09
-0.00043920321
-7.7240616e-09
-0.0004463597
-0.00045552196
6.9788303e-10
-4.5804467e-06
1.3007258e-09
-1.3804297e-05
1.1467932e-09
-2.3042349e-05
1.6843241e-10
-3.2483563e-05
-3.0929714e-09
-4.10673e-05
5.952847e-09
-5.0612705e-05
9.3028633e-09
-5.9820295e-05
1.9599427e-09
-6.9322841e-05
5.4498215e-09
-7.7877836e-05
-8.3706334e-10
-8.6725041e-05
-1.1982728e-08
-9.6935666e-05
-1.4818406e-08
-0.00010582481
7.1423915e-09
-0.00011554312
6.561552e-09
-0.00012423335
-1.6136675e-08
-0.00013296404
-1.2053454e-08
-0.00014263473
-2.6468398e-09
-0.00015060072
3.7322362e-08
-0.00016166871
2.1525763e-08
-0.00016902521
9.8696919e-09
-0.0001802707
4.0557167e-09
-0.00018780196
3.2037552e-08
-0.0001978452
-1.5648073e-08
-0.00020703444
-1.3527144e-08
-0.00021549982
9.6555698e-09
-0.00022423501
-4.6111001e-09
-0.000234623
6.4918036e-09
-0.00024278921
6.6825198e-10
-0.00025101846
1.5428498e-08
-0.00026225537
5.7727493e-08
-0.00027081421
8.8460034e-09
-0.00027967046
-7.4962469e-09
-0.00028816789
5.9337718e-10
-0.00029809994
-1.4983838e-08
-0.00030649758
-6.5378825e-09
-0.00031957608
-7.3871689e-08
-0.00032429684
-2.3357693e-08
-0.00033494026
-8.1544491e-09
-0.00034357846
-1.3228812e-09
-0.00035140217
-3.0841048e-08
-0.00036301643
-3.2914916e-08
-0.00037271988
4.4605184e-08
-0.00038191953
-3.701551e-08
-0.00039109779
-7.5783096e-09
-0.00039851928
3.5020656e-08
-0.0004073172
6.1496391e-08
-0.00041872243
9.5943287e-08
-0.00043029962
1.8662275e-09
-0.00043718184
-5.2378622e-08
-0.00044628144
-0.00045554963
5.5742904e-10
-4.6014724e-06
-1.0257669e-09
-1.3802582e-05
2.3506751e-09
-2.3010208e-05
-5.1083849e-09
-3.2361336e-05
-2.7320095e-09
-4.1221798e-05
2.6903347e-10
-5.0432104e-05
9.7250616e-09
-5.9659525e-05
-3.3477715e-09
-6.8998144e-05
-1.5757992e-09
-7.8226217e-05
3.1231955e-09
-8.7047283e-05
-1.2433436e-08
-9.662578e-05
-7.7125522e-09
-0.00010545078
-1.6656671e-09
-0.00011461117
7.3826006e-09
-0.00012424554
-3.0446577e-09
-0.00013235861
5.2309098e-09
-0.00014215497
1.546101e-08
-0.00015101546
1.3355003e-08
-0.00016239406
9.0799588e-09
-0.00016956174
-2.4998654e-08
-0.0001794319
-1.6661769e-08
-0.00018864896
2.658292e-08
-0.00019789208
1.6368008e-08
-0.00020703947
-1.5539304e-08
-0.00021531423
-4.4014123e-08
-0.00022364416
-1.681552e-09
-0.00023466658
-4.0100887e-09
-0.00024239596
1.5264838e-09
-0.00025194801
1.987327e-08
-0.00026215236
-3.5908381e-09
-0.00027150887
8.4014731e-09
-0.00027953982
4.8181083e-08
-0.00028788271
-8.3190471e-09
-0.00029740102
2.6477442e-08
-0.00030742222
-5.0988224e-08
-0.00031864505
2.7856151e-09
-0.00032523932
-3.2195151e-08
-0.00033591167
-2.9546641e-08
-0.00034511232
8.0802057e-09
-0.0003527281
3.8018288e-08
-0.00036351759
-2.8059469e-08
-0.00037224974
2.0350162e-08
-0.00038196921
-1.0144018e-08
-0.00039108044
7.8144077e-08
-0.00040171857
6.7415862e-09
-0.00040675549
3.6750629e-08
-0.00041725658
5.3344317e-08
-0.00043147352
1.8402185e-08
-0.00043717103
1.3559683e-08
-0.00044626328
-0.00045553387
-4.6268687e-10
-4.6010272e-06
-9.9714585e-11
-1.3802621e-05
1.6392991e-09
-2.2871548e-05
-5.3579276e-09
-3.2211658e-05
1.348017e-09
-4.1412233e-05
-2.194439e-09
-5.0204684e-05
-1.1407322e-08
-5.9441249e-05
-6.3378769e-09
-6.925734e-05
-2.5083179e-09
-7.8232123e-05
9.329644e-09
-8.7766027e-05
4.6075772e-09
-9.6377069e-05
3.0034378e-09
-0.00010536084
-2.8275734e-09
-0.00011450577
-6.9314109e-09
-0.00012424406
6.3836007e-09
-0.00013274354
3.2843483e-09
-0.00014207302
1.1791034e-08
-0.00015152809
-2.8739318e-08
-0.0001617711
-5.6122068e-09
-0.00017024983
-1.3794766e-08
-0.0001794375
1.8500006e-10
-0.00018866406
-9.2822001e-09
-0.00019789163
1.6464011e-08
-0.00020704862
-1.2262553e-08
-0.00021624582
-1.5582216e-08
-0.00022446714
2.5071713e-08
-0.00023556396
1.4104422e-09
-0.0002424616
1.2688754e-08
-0.00025307676
1.1044323e-09
-0.00026294354
-6.2301994e-08
-0.00027145128
1.4602738e-09
-0.00028180989
5.265456e-08
-0.00028883712
6.2160646e-08
-0.0002977181
3.2101898e-08
-0.00030663953
-3.5718247e-08
-0.00031751773
5.8590806e-08
-0.00032766348
-3.1366119e-08
-0.0003358092
-2.5461569e-08
-0.00034388126
1.683858e-08
-0.00035433482
4.7695821e-08
-0.0003622434
6.0345936e-08
-0.00037174618
1.1174325e-09
-0.00038191944
2.0868227e-08
-0.00038965757
3.0496312e-10
-0.00040188115
5.7489078e-08
-0.00040770748
3.6896257e-08
-0.0004153747
-2.2990335e-08
-0.00042985781
-2.3457792e-08
-0.00043579192
4.5083342e-08
-0.00044604715
-0.00045548243
-9.3842575e-11
-4.6009848e-06
1.5689564e-09
-1.3754484e-05
-4.4782643e-10
-2.282279e-05
-2.922586e-09
-3.2209812e-05
1.099247e-09
-4.1415849e-05
2.7537548e-09
-5.0391209e-05
-1.0000217e-08
-5.9385818e-05
4.7757497e-09
-6.9331973e-05
-6.4479253e-10
-7.8228762e-05
-7.3896323e-09
-8.7833335e-05
1.1118565e-08
-9.6975436e-05
1.2729781e-08
-0.00010582975
1.0771388e-08
-0.0001150215
-5.9022544e-09
-0.00012422649
-3.9343729e-10
-0.00013321468
-1.6323031e-09
-0.00014268065
1.2651168e-08
-0.00015168308
-1.8967312e-08
-0.00016101478
-1.3796855e-08
-0.00016964175
1.5508893e-08
-0.00017924097
2.106838e-08
-0.00018867137
-2.2317241e-08
-0.00019785106
-1.9156348e-08
-0.00020700279
-5.9589524e-09
-0.00021625879
4.0388283e-08
-0.00022633433
1.9397196e-08
-0.00023572574
2.1639461e-08
-0.00024315844
4.0534887e-09
-0.0002529442
-2.4483032e-08
-0.00026324445
-1.6823843e-08
-0.00027145194
-1.9171062e-08
-0.00028195456
-3.2081331e-08
-0.00029098917
2.3165997e-08
-0.00030019845
2.9524514e-08
-0.00030572783
3.3814153e-08
-0.00031752734
2.2820133e-08
-0.00032873278
4.9569391e-08
-0.00033707534
3.9845831e-08
-0.00034358018
5.7944823e-09
-0.00035430087
-1.0735614e-08
-0.0003619209
5.393778e-08
-0.00037175781
4.1493288e-08
-0.00038191308
7.8047519e-09
-0.00038784639
-4.094942e-08
-0.00040016711
3.2321841e-08
-0.00040960177
6.6793748e-08
-0.00041689335
-3.1580864e-09
-0.00042786855
-4.8881814e-08
-0.00043404873
-2.6112573e-08
-0.00044573119
-0.00045548871
4.2200739e-10
-4.5848399e-06
6.6640486e-10
-1.3743785e-05
-3.4794072e-10
-2.2821161e-05
1.2942953e-09
-3.2212179e-05
-1.7930543e-09
-4.1413656e-05
1.9840469e-09
-5.061877e-05
7.0092638e-09
-5.9397441e-05
1.477139e-08
-6.8781167e-05
1.9512684e-09
-7.8216067e-05
-1.2515241e-08
-8.7431315e-05
-4.8452922e-09
-9.706185e-05
3.8548975e-09
-0.00010558482
1.0098527e-08
-0.0001146306
1.4490757e-08
-0.00012422818
1.8513585e-11
-0.00013282079
-5.9761009e-09
-0.00014263554
3.2496966e-09
-0.00015242061
1.4703872e-08
-0.000161026
7.3372061e-09
-0.00016887101
1.2782469e-08
-0.00017894603
3.9045816e-09
-0.00018865994
7.5676387e-09
-0.00019785297
-1.4152044e-08
-0.00020699271
1.5328825e-08
-0.00021707562
1.3987363e-08
-0.00022651815
-2.7299051e-08
-0.00023462842
4.7838626e-09
-0.00024350179
2.5827661e-08
-0.00025283742
-1.5525489e-09
-0.00026217778
3.731217e-08
-0.00027049718
-4.1450627e-09
-0.00027964038
-5.4496195e-08
-0.00029115987
-6.0433548e-08
-0.00030043886
-2.5245884e-09
-0.00030689424
8.4451772e-09
-0.00031640263
-3.7549945e-08
-0.00032902388
2.8137916e-08
-0.00033743191
2.7926897e-08
-0.00034511181
2.4110252e-08
-0.00035560736
1.2679238e-08
-0.00036352888
-3.3810401e-09
-0.00037169549
2.6805423e-08
-0.00038055669
4.6102418e-09
-0.00038781068
2.7824475e-08
-0.00040033773
-2.7408652e-08
-0.000409554
3.397505e-08
-0.00042034386
3.1056918e-08
-0.00042784528
-2.3667526e-08
-0.00043378038
-5.1694721e-08
-0.00044597139
-0.00045427283
-1.0399985e-10
-4.5640553e-06
8.0106034e-10
-1.3806087e-05
2.4659394e-09
-2.2903984e-05
4.9111431e-09
-3.2214481e-05
1.0786219e-09
-4.1408385e-05
-1.9368354e-09
-5.0614645e-05
3.6236712e-09
-5.9473376e-05
3.9716874e-10
-6.8517551e-05
1.2207547e-09
-7.8213108e-05
1.417151e-09
-8.7430593e-05
-3.4795955e-09
-9.6273038e-05