/*--------------------------------*- C++ -*----------------------------------*\
  =========                 |
  \\      /  F ield         | OpenFOAM: The Open Source CFD Toolbox
   \\    /   O peration     | Website:  https://openfoam.org
    \\  /    A nd           | Version:  11
     \\/     M anipulation  |
\*---------------------------------------------------------------------------*/
FoamFile
{
    format      ascii;
    class       volScalarField;
    location    "0.5";
    object      qCO2;
}
// * * * * * * * * * * * * * * * * * * * * * * * * * * * * * * * * * * * * * //

dimensions      [-1 0 0 0 1 0 0];

internalField   nonuniform List<scalar> 
6000
(
0.46885202
0.46885201
0.46885201
0.46885201
0.46885201
0.46885201
0.46885201
0.46885201
0.46885201
0.46885201
0.46885201
0.46885201
0.46885201
0.46885201
0.46885201
0.46885201
0.46885201
0.46885201
0.46885201
0.46885201
0.46885201
0.46885201
0.46885201
0.46885201
0.46885201
0.46885201
0.46885201
0.46885201
0.46885201
0.46885201
0.46885201
0.46885201
0.46885201
0.46885201
0.46885201
0.46885201
0.46885201
0.46885201
0.46885201
0.46885201
0.46885201
0.46885201
0.46885201
0.46885201
0.46885201
0.46885201
0.46885201
0.46885201
0.46885201
0.46885202
0.0071503159
0.0071503694
0.0071503819
0.007150383
0.0071503818
0.007150381
0.0071503813
0.0071503819
0.0071503827
0.0071503832
0.0071503831
0.0071503839
0.0071503843
0.0071503841
0.007150385
0.0071503844
0.0071503843
0.0071503847
0.0071503848
0.0071503842
0.0071503852
0.0071503847
0.0071503845
0.0071503849
0.0071503838
0.0071503838
0.0071503855
0.0071503849
0.0071503846
0.0071503854
0.0071503852
0.0071503847
0.0071503853
0.0071503863
0.0071503865
0.007150386
0.0071503867
0.0071503854
0.0071503848
0.0071503861
0.0071503855
0.0071503852
0.0071503853
0.0071503856
0.0071503854
0.0071503862
0.007150386
0.0071503862
0.007150384
0.0071504254
2.007015e-07
2.0070269e-07
2.0070304e-07
2.0070306e-07
2.0070318e-07
2.0070306e-07
2.007031e-07
2.0070311e-07
2.0070305e-07
2.0070311e-07
2.0070313e-07
2.0070315e-07
2.0070312e-07
2.0070309e-07
2.0070316e-07
2.0070313e-07
2.0070317e-07
2.0070314e-07
2.0070307e-07
2.0070323e-07
2.0070321e-07
2.0070303e-07
2.007032e-07
2.0070312e-07
2.0070311e-07
2.0070307e-07
2.0070313e-07
2.0070316e-07
2.0070306e-07
2.0070312e-07
2.007031e-07
2.0070317e-07
2.0070308e-07
2.0070309e-07
2.0070327e-07
2.0070323e-07
2.0070311e-07
2.0070318e-07
2.0070328e-07
2.0070303e-07
2.0070316e-07
2.007032e-07
2.0070315e-07
2.0070305e-07
2.0070306e-07
2.0070319e-07
2.007032e-07
2.0070312e-07
2.0070292e-07
2.0070403e-07
5.519672e-12
5.5198996e-12
5.5198258e-12
5.5199082e-12
5.5198487e-12
5.5198181e-12
5.5198831e-12
5.5199139e-12
5.5199584e-12
5.5199192e-12
5.5197925e-12
5.5198393e-12
5.5198736e-12
5.5198007e-12
5.5199311e-12
5.5198242e-12
5.5197879e-12
5.5198603e-12
5.5198972e-12
5.5197815e-12
5.51997e-12
5.5198989e-12
5.5198585e-12
5.5199288e-12
5.5197321e-12
5.5197383e-12
5.5200389e-12
5.5199119e-12
5.5198383e-12
5.5199645e-12
5.5198957e-12
5.519737e-12
5.5198219e-12
5.5199853e-12
5.5199633e-12
5.5198242e-12
5.5199533e-12
5.5196936e-12
5.519596e-12
5.5199022e-12
5.5198363e-12
5.5198073e-12
5.5198712e-12
5.5199181e-12
5.519834e-12
5.5198844e-12
5.5197959e-12
5.5199291e-12
5.5198896e-12
5.5200921e-12
1.5203438e-16
1.5204723e-16
1.5204302e-16
1.5204645e-16
1.5204921e-16
1.5203863e-16
1.5204712e-16
1.5204966e-16
1.5204911e-16
1.5204806e-16
1.5203784e-16
1.5204386e-16
1.5204387e-16
1.5203446e-16
1.5204963e-16
1.5203936e-16
1.5203753e-16
1.5204289e-16
1.5204281e-16
1.5204184e-16
1.5205722e-16
1.5204176e-16
1.5204905e-16
1.5204942e-16
1.5203327e-16
1.5203244e-16
1.5206042e-16
1.5205365e-16
1.5204003e-16
1.5205544e-16
1.5204819e-16
1.520372e-16
1.5203953e-16
1.5205421e-16
1.520607e-16
1.5204681e-16
1.5205057e-16
1.5203014e-16
1.5202881e-16
1.5204165e-16
1.5204376e-16
1.5204665e-16
1.5204969e-16
1.5204732e-16
1.5203915e-16
1.5204757e-16
1.5203934e-16
1.5204603e-16
1.5204083e-16
1.5205236e-16
4.1906277e-21
4.1907617e-21
4.1907127e-21
4.1907505e-21
4.1911842e-21
4.1906246e-21
4.1908712e-21
4.1910782e-21
4.1908951e-21
4.1909304e-21
4.1904577e-21
4.1906074e-21
4.1905349e-21
4.1902152e-21
4.1909912e-21
4.190534e-21
4.1906077e-21
4.1906017e-21
4.1903695e-21
4.1910132e-21
4.1914081e-21
4.190341e-21
4.1910427e-21
4.1908911e-21
4.1902688e-21
4.1902853e-21
4.1915638e-21
4.1913255e-21
4.1905944e-21
4.1912043e-21
4.1907713e-21
4.1907312e-21
4.1903817e-21
4.1909905e-21
4.1917907e-21
4.1909561e-21
4.19081e-21
4.1903135e-21
4.1905813e-21
4.190311e-21
4.1908945e-21
4.1910817e-21
4.1912778e-21
4.190741e-21
4.1904379e-21
4.1910331e-21
4.1905017e-21
4.1906676e-21
4.1903448e-21
4.1910197e-21
1.1556077e-25
1.1555785e-25
1.155601e-25
1.1556205e-25
1.1557317e-25
1.1557014e-25
1.1556363e-25
1.155818e-25
1.1557356e-25
1.1557288e-25
1.1555158e-25
1.1553889e-25
1.155447e-25
1.1555071e-25
1.1557666e-25
1.155554e-25
1.1556109e-25
1.155507e-25
1.1553724e-25
1.1557775e-25
1.1557653e-25
1.1554583e-25
1.1556217e-25
1.1556281e-25
1.1554154e-25
1.1554556e-25
1.1560314e-25
1.1558396e-25
1.155657e-25
1.155725e-25
1.1556073e-25
1.1556468e-25
1.1553926e-25
1.1555988e-25
1.1559526e-25
1.1555878e-25
1.1555307e-25
1.1554805e-25
1.1556524e-25
1.1554098e-25
1.1557171e-25
1.1556539e-25
1.1558484e-25
1.1555044e-25
1.1554672e-25
1.1558009e-25
1.1555048e-25
1.1556064e-25
1.1555095e-25
1.1560024e-25
3.1848163e-30
3.1847279e-30
3.1848154e-30
3.1850501e-30
3.1848994e-30
3.1854582e-30
3.1848618e-30
3.1856147e-30
3.185644e-30
3.1853924e-30
3.184537e-30
3.1836843e-30
3.1840827e-30
3.1848479e-30
3.1856805e-30
3.1847393e-30
3.1848215e-30
3.1843168e-30
3.1840714e-30
3.1851765e-30
3.1849361e-30
3.1845076e-30
3.1845627e-30
3.1848809e-30
3.1840582e-30
3.184268e-30
3.1868761e-30
3.1858626e-30
3.1854108e-30
3.1852116e-30
3.1851998e-30
3.1848978e-30
3.1838952e-30
3.1846864e-30
3.1856522e-30
3.1846225e-30
3.1843756e-30
3.1842481e-30
3.185076e-30
3.1842399e-30
3.1851771e-30
3.1846519e-30
3.1854741e-30
3.1840834e-30
3.1841424e-30
3.1855799e-30
3.184522e-30
3.1850235e-30
3.1849655e-30
3.1873574e-30
8.7703332e-35
8.7700075e-35
8.7697034e-35
8.7718887e-35
8.7698235e-35
8.7726386e-35
8.7701773e-35
8.7718458e-35
8.7739472e-35
8.7724871e-35
8.7691287e-35
8.7669318e-35
8.767622e-35
8.7700265e-35
8.7733488e-35
8.7707001e-35
8.7702726e-35
8.7683088e-35
8.7684071e-35
8.7703671e-35
8.7696346e-35
8.7695352e-35
8.7688891e-35
8.770901e-35
8.7674298e-35
8.7684963e-35
8.7780196e-35
8.7743081e-35
8.7728433e-35
8.7716859e-35
8.7723338e-35
8.7703447e-35
8.7672707e-35
8.7698556e-35
8.772293e-35
8.7702863e-35
8.7684198e-35
8.7679862e-35
8.77153e-35
8.7689987e-35
8.771044e-35
8.7695153e-35
8.7716654e-35
8.7671499e-35
8.7672907e-35
8.7717471e-35
8.7696253e-35
8.7711564e-35
8.7718973e-35
8.7803032e-35
2.414601e-39
2.4144728e-39
2.4141513e-39
2.4153e-39
2.4145466e-39
2.4153133e-39
2.4145014e-39
2.4149785e-39
2.4158153e-39
2.4154184e-39
2.4142295e-39
2.4137822e-39
2.4138217e-39
2.4141705e-39
2.4155013e-39
2.4149075e-39
2.4145747e-39
2.4140254e-39
2.4139379e-39
2.4145245e-39
2.4141505e-39
2.4144681e-39
2.4141185e-39
2.4149179e-39
2.4137185e-39
2.4139904e-39
2.4169511e-39
2.4157937e-39
2.4153732e-39
2.4150903e-39
2.4153583e-39
2.4144857e-39
2.4138442e-39
2.4144317e-39
2.4151948e-39
2.4148043e-39
2.4139635e-39
2.4137599e-39
2.4151068e-39
2.4144856e-39
2.4148774e-39
2.4144387e-39
2.4150138e-39
2.4135398e-39
2.4136601e-39
2.4147921e-39
2.4145027e-39
2.4148399e-39
2.4153658e-39
2.4177742e-39
6.647998e-44
6.6470343e-44
6.6462059e-44
6.6502374e-44
6.6484197e-44
6.649614e-44
6.6473261e-44
6.6492457e-44
6.6513767e-44
6.6504229e-44
6.6473683e-44
6.6460415e-44
6.6458112e-44
6.6465154e-44
6.6508814e-44
6.649091e-44
6.648051e-44
6.6467902e-44
6.6457897e-44
6.647617e-44
6.6462056e-44
6.6479332e-44
6.647033e-44
6.6489684e-44
6.6455908e-44
6.6458108e-44
6.6543512e-44
6.6514854e-44
6.649837e-44
6.6497085e-44
6.6506859e-44
6.6471109e-44
6.6462784e-44
6.6472913e-44
6.6499194e-44
6.6492189e-44
6.6463507e-44
6.6452147e-44
6.6496403e-44
6.6484029e-44
6.6491851e-44
6.6478455e-44
6.6495374e-44
6.6446577e-44
6.6457646e-44
6.6484095e-44
6.6476892e-44
6.6485583e-44
6.6513192e-44
6.6575384e-44
1.8306289e-48
1.83008e-48
1.8300581e-48
1.831249e-48
1.8307638e-48
1.8309001e-48
1.8302624e-48
1.830904e-48
1.8316208e-48
1.8312144e-48
1.8305785e-48
1.8300843e-48
1.8299231e-48
1.8302872e-48
1.8315417e-48
1.8309602e-48
1.8306925e-48
1.8303869e-48
1.8298104e-48
1.8303549e-48
1.829943e-48
1.8305806e-48
1.8305023e-48
1.830923e-48
1.8299115e-48
1.8298835e-48
1.8322714e-48
1.8316095e-48
1.8309425e-48
1.8310769e-48
1.831477e-48
1.8301813e-48
1.8301915e-48
1.8302717e-48
1.8311293e-48
1.8310392e-48
1.8301551e-48
1.8297861e-48
1.8310171e-48
1.8306941e-48
1.8310253e-48
1.8304822e-48
1.8310688e-48
1.8294815e-48
1.8298795e-48
1.8307241e-48
1.8304844e-48
1.8307102e-48
1.8318262e-48
1.8334564e-48
5.0413235e-53
5.0397017e-53
5.0397784e-53
5.0431582e-53
5.0418573e-53
5.0419575e-53
5.0402644e-53
5.0421212e-53
5.0445278e-53
5.0427714e-53
5.0413408e-53
5.0398847e-53
5.0390871e-53
5.0405582e-53
5.0440192e-53
5.0426403e-53
5.0414059e-53
5.0411426e-53
5.0382953e-53
5.0401382e-53
5.0389785e-53
5.0411381e-53
5.0417337e-53
5.0424248e-53
5.0395915e-53
5.0392805e-53
5.045796e-53
5.0436841e-53
5.0420849e-53
5.0424156e-53
5.0440767e-53
5.0396865e-53
5.0403593e-53
5.0398663e-53
5.0427959e-53
5.042411e-53
5.040073e-53
5.0390703e-53
5.0421958e-53
5.0409987e-53
5.0426205e-53
5.0404656e-53
5.0423734e-53
5.0376431e-53
5.038677e-53
5.0415991e-53
5.0411824e-53
5.0412847e-53
5.0450762e-53
5.0495839e-53
1.3882557e-57
1.3879127e-57
1.3879504e-57
1.3889097e-57
1.388592e-57
1.3885394e-57
1.3880884e-57
1.3885703e-57
1.3892602e-57
1.3886172e-57
1.3882614e-57
1.3879784e-57
1.3876276e-57
1.3881367e-57
1.3891087e-57
1.388907e-57
1.3884062e-57
1.3883733e-57
1.3874218e-57
1.3879112e-57
1.3875605e-57
1.3883135e-57
1.3886229e-57
1.3886738e-57
1.3879829e-57
1.3877905e-57
1.389554e-57
1.3888338e-57
1.3886626e-57
1.3885741e-57
1.3891294e-57
1.3878286e-57
1.3881048e-57
1.3877525e-57
1.3888546e-57
1.3886288e-57
1.3880759e-57
1.3876812e-57
1.3885394e-57
1.3881907e-57
1.3886792e-57
1.3880309e-57
1.3885697e-57
1.3872613e-57
1.3875874e-57
1.3883671e-57
1.3883982e-57
1.3881995e-57
1.3894773e-57
1.3907465e-57
3.8229037e-62
3.8219689e-62
3.8224037e-62
3.8250703e-62
3.824258e-62
3.8237955e-62
3.8227448e-62
3.8239638e-62
3.8259424e-62
3.8239085e-62
3.8229374e-62
3.8224384e-62
3.8210611e-62
3.822726e-62
3.8256112e-62
3.8254748e-62
3.8238105e-62
3.8234975e-62
3.8209842e-62
3.8221947e-62
3.8207333e-62
3.8234879e-62
3.8244127e-62
3.8243065e-62
3.8225842e-62
3.821556e-62
3.8264673e-62
3.8246314e-62
3.8245741e-62
3.8237911e-62
3.8252143e-62
3.8219273e-62
3.8225614e-62
3.8213154e-62
3.825291e-62
3.8242064e-62
3.822839e-62
3.821242e-62
3.8236201e-62
3.8228578e-62
3.8243096e-62
3.8226581e-62
3.8239865e-62
3.820274e-62
3.8213615e-62
3.8235162e-62
3.8235323e-62
3.822605e-62
3.8268453e-62
3.830507e-62
1.0527702e-66
1.0524665e-66
1.0526436e-66
1.0533684e-66
1.053174e-66
1.052944e-66
1.0527186e-66
1.0530846e-66
1.0536644e-66
1.0530457e-66
1.0527917e-66
1.0527151e-66
1.0521921e-66
1.0527197e-66
1.0535614e-66
1.0535859e-66
1.053048e-66
1.0529852e-66
1.0523748e-66
1.0526141e-66
1.0521027e-66
1.0530269e-66
1.0533571e-66
1.0531876e-66
1.0527198e-66
1.0522763e-66
1.0536944e-66
1.0533538e-66
1.0533249e-66
1.0530395e-66
1.0533454e-66
1.0525726e-66
1.0526467e-66
1.0523091e-66
1.0535762e-66
1.0532178e-66
1.0528206e-66
1.0523065e-66
1.0528822e-66
1.0527571e-66
1.0532378e-66
1.0528201e-66
1.0531215e-66
1.0520686e-66
1.0524368e-66
1.0530046e-66
1.0529047e-66
1.0527304e-66
1.0539791e-66
1.0550388e-66
2.8993995e-71
2.898264e-71
2.8986772e-71
2.9006716e-71
2.9003979e-71
2.8995706e-71
2.8989342e-71
2.9000333e-71
2.9016663e-71
2.8999477e-71
2.8991612e-71
2.8992051e-71
2.8976642e-71
2.8990065e-71
2.9013821e-71
2.9016479e-71
2.9001428e-71
2.89994e-71
2.8985231e-71
2.8987989e-71
2.8973776e-71
2.9000883e-71
2.901296e-71
2.9004191e-71
2.8991309e-71
2.8976025e-71
2.9017235e-71
2.9009544e-71
2.9009673e-71
2.8999534e-71
2.9006935e-71
2.8989567e-71
2.8989772e-71
2.8978588e-71
2.9017552e-71
2.9006987e-71
2.899603e-71
2.8980395e-71
2.8994888e-71
2.8992922e-71
2.900776e-71
2.8994159e-71
2.9003507e-71
2.8974208e-71
2.8986093e-71
2.899758e-71
2.8994099e-71
2.8994143e-71
2.9027648e-71
2.905694e-71
7.9856739e-76
7.9815252e-76
7.9822914e-76
7.9875871e-76
7.9877829e-76
7.9851034e-76
7.9833825e-76
7.986273e-76
7.9905069e-76
7.9865335e-76
7.9837101e-76
7.9841206e-76
7.9802815e-76
7.9832171e-76
7.9900095e-76
7.9916769e-76
7.986896e-76
7.9864986e-76
7.9826731e-76
7.9833742e-76
7.979654e-76
7.9867349e-76
7.9909045e-76
7.9873803e-76
7.984634e-76
7.9796453e-76
7.9911253e-76
7.9887084e-76
7.9894337e-76
7.9858076e-76
7.9878747e-76
7.9843156e-76
7.9842624e-76
7.9804523e-76
7.992086e-76
7.9884613e-76
7.9858794e-76
7.9811659e-76
7.9856258e-76
7.9847447e-76
7.9889417e-76
7.9848407e-76
7.9878324e-76
7.9794283e-76
7.983162e-76
7.9857239e-76
7.9845109e-76
7.9851648e-76
7.9944659e-76
8.002475e-76
2.19928e-80
2.1981864e-80
2.1983256e-80
2.1996324e-80
2.1999419e-80
2.199071e-80
2.1985324e-80
2.199529e-80
2.2004888e-80
2.1995173e-80
2.1987352e-80
2.1988223e-80
2.197791e-80
2.1983643e-80
2.2003803e-80
2.2010779e-80
2.1993801e-80
2.1995217e-80
2.1983146e-80
2.1986906e-80
2.197659e-80
2.1995785e-80
2.2008938e-80
2.199547e-80
2.1991147e-80
2.1976602e-80
2.2007234e-80
2.2001702e-80
2.200313e-80
2.1991936e-80
2.1997843e-80
2.1990238e-80
2.1989808e-80
2.197845e-80
2.2010904e-80
2.1999401e-80
2.1994357e-80
2.1980234e-80
2.1993922e-80
2.1989836e-80
2.1999958e-80
2.1990828e-80
2.199882e-80
2.197538e-80
2.198628e-80
2.1994415e-80
2.1988668e-80
2.1991691e-80
2.2018219e-80
2.2040259e-80
6.0566595e-85
6.0544454e-85
6.0541036e-85
6.0574475e-85
6.0584971e-85
6.0559831e-85
6.0543736e-85
6.0579068e-85
6.0604606e-85
6.0574633e-85
6.0555026e-85
6.0558135e-85
6.0528783e-85
6.0538567e-85
6.059539e-85
6.0619053e-85
6.0563439e-85
6.0581682e-85
6.0541701e-85
6.0551295e-85
6.0521385e-85
6.0581117e-85
6.0617866e-85
6.0576957e-85
6.056612e-85
6.0530631e-85
6.0611149e-85
6.0601194e-85
6.0599354e-85
6.0565603e-85
6.0581726e-85
6.0564213e-85
6.0561905e-85
6.0528936e-85
6.0618977e-85
6.0585271e-85
6.0580276e-85
6.0536481e-85
6.057536e-85
6.0557257e-85
6.0581358e-85
6.0563055e-85
6.0584877e-85
6.052435e-85
6.055169e-85
6.0579548e-85
6.0552403e-85
6.056667e-85
6.0643154e-85
6.0704054e-85
1.6680172e-89
1.6675067e-89
1.6673646e-89
1.6681875e-89
1.668338e-89
1.6677024e-89
1.6673974e-89
1.6683833e-89
1.6691531e-89
1.6682987e-89
1.667729e-89
1.6678107e-89
1.6669707e-89
1.6672689e-89
1.6686689e-89
1.6695142e-89
1.6677167e-89
1.6686209e-89
1.6674424e-89
1.6674565e-89
1.6667072e-89
1.6685687e-89
1.6695933e-89
1.6685561e-89
1.6680406e-89
1.6672156e-89
1.6692538e-89
1.6690892e-89
1.6690892e-89
1.6679365e-89
1.6684333e-89
1.6680442e-89
1.6679367e-89
1.6669241e-89
1.6695212e-89
1.6685714e-89
1.6686592e-89
1.6673492e-89
1.6683266e-89
1.667631e-89
1.6682843e-89
1.6678821e-89
1.6685379e-89
1.6670277e-89
1.6676542e-89
1.6683965e-89
1.6675699e-89
1.6679656e-89
1.6702892e-89
1.6719377e-89
4.5937099e-94
4.5920598e-94
4.592313e-94
4.5944134e-94
4.5945975e-94
4.5929447e-94
4.5923962e-94
4.595016e-94
4.5968218e-94
4.5948659e-94
4.5932097e-94
4.5931307e-94
4.591242e-94
4.5916991e-94
4.5953508e-94
4.5981357e-94
4.5926622e-94
4.5956074e-94
4.5924592e-94
4.5920256e-94
4.5904803e-94
4.595677e-94
4.5985793e-94
4.5959845e-94
4.5936947e-94
4.5918817e-94
4.5968683e-94
4.5967849e-94
4.5971866e-94
4.5932575e-94
4.5948374e-94
4.5944024e-94
4.5937042e-94
4.5905664e-94
4.5982227e-94
4.5953742e-94
4.5961021e-94
4.592351e-94
4.594554e-94
4.5925357e-94
4.5944283e-94
4.5934419e-94
4.5953227e-94
4.5916912e-94
4.5927536e-94
4.5944808e-94
4.5927538e-94
4.593536e-94
4.6005013e-94
4.6050346e-94
1.2650348e-98
1.2645379e-98
1.2647644e-98
1.2654176e-98
1.2654458e-98
1.2649339e-98
1.2648134e-98
1.2655875e-98
1.2659616e-98
1.2655369e-98
1.265122e-98
1.2649518e-98
1.2646029e-98
1.264536e-98
1.2655755e-98
1.2664466e-98
1.2647501e-98
1.2657223e-98
1.2647297e-98
1.2647144e-98
1.264456e-98
1.2657142e-98
1.2665421e-98
1.2658993e-98
1.2650908e-98
1.2647079e-98
1.2659648e-98
1.2660249e-98
1.2661513e-98
1.2649691e-98
1.2654241e-98
1.2654932e-98
1.2651724e-98
1.2643213e-98
1.2664309e-98
1.2655552e-98
1.2658386e-98
1.2648566e-98
1.265371e-98
1.2648453e-98
1.2654011e-98
1.2650637e-98
1.2656171e-98
1.2647266e-98
1.264906e-98
1.2652661e-98
1.2648968e-98
1.2651222e-98
1.26713e-98
1.2684425e-98
3.483569e-103
3.4825234e-103
3.4834004e-103
3.4853275e-103
3.4852199e-103
3.4835698e-103
3.4834048e-103
3.4857408e-103
3.4867655e-103
3.4855611e-103
3.4845605e-103
3.4837125e-103
3.482914e-103
3.4827054e-103
3.4855083e-103
3.488379e-103
3.4828085e-103
3.4861762e-103
3.4829279e-103
3.4830027e-103
3.4827952e-103
3.4857402e-103
3.4882397e-103
3.4866879e-103
3.4841655e-103
3.4835543e-103
3.4867316e-103
3.4869477e-103
3.487118e-103
3.4836814e-103
3.4853372e-103
3.4853484e-103
3.484737e-103
3.4822683e-103
3.4878603e-103
3.4853456e-103
3.4861955e-103
3.4838155e-103
3.4850905e-103
3.483446e-103
3.485228e-103
3.484329e-103
3.4858276e-103
3.4834372e-103
3.4838875e-103
3.4845249e-103
3.48377e-103
3.4843714e-103
3.4900972e-103
3.4938935e-103
9.5931745e-108
9.5914665e-108
9.5945486e-108
9.5999732e-108
9.5989387e-108
9.5941558e-108
9.5936784e-108
9.6008408e-108
9.6036957e-108
9.6001568e-108
9.5969506e-108
9.5942376e-108
9.5918648e-108
9.5911089e-108
9.5995133e-108
9.6081985e-108
9.5912609e-108
9.6021838e-108
9.5923285e-108
9.5919102e-108
9.5921085e-108
9.5993373e-108
9.6069254e-108
9.6033855e-108
9.5958365e-108
9.5951363e-108
9.603772e-108
9.6046086e-108
9.6032873e-108
9.5936792e-108
9.6000708e-108
9.5983842e-108
9.5983329e-108
9.590352e-108
9.6062071e-108
9.5991025e-108
9.6014807e-108
9.5954042e-108
9.5983556e-108
9.5928634e-108
9.5995635e-108
9.5977087e-108
9.6010354e-108
9.5938707e-108
9.5953925e-108
9.5966199e-108
9.5958801e-108
9.5963418e-108
9.613699e-108
9.6238428e-108
2.6418606e-112
2.6415623e-112
2.6425527e-112
2.644232e-112
2.6439041e-112
2.6423748e-112
2.642189e-112
2.6443919e-112
2.6452087e-112
2.6442435e-112
2.6432021e-112
2.6424112e-112
2.6415315e-112
2.6410886e-112
2.6436789e-112
2.6463558e-112
2.6414671e-112
2.6448434e-112
2.6418611e-112
2.6418371e-112
2.6418128e-112
2.643496e-112
2.6458131e-112
2.6450361e-112
2.6427473e-112
2.6426025e-112
2.6452912e-112
2.6454743e-112
2.6446386e-112
2.6420828e-112
2.6443188e-112
2.6434093e-112
2.6435278e-112
2.6411451e-112
2.6458388e-112
2.6436122e-112
2.6445824e-112
2.6429133e-112
2.6434538e-112
2.6418569e-112
2.6441339e-112
2.6434745e-112
2.6443461e-112
2.642222e-112
2.6427431e-112
2.6430325e-112
2.643138e-112
2.6430337e-112
2.6483467e-112
2.6508573e-112
7.2756692e-117
7.2751073e-117
7.2776844e-117
7.2826312e-117
7.2826983e-117
7.2771523e-117
7.2770544e-117
7.2831632e-117
7.2861971e-117
7.28317e-117
7.2801911e-117
7.2777677e-117
7.2754939e-117
7.2732161e-117
7.2804136e-117
7.2892794e-117
7.2749379e-117
7.284523e-117
7.2758214e-117
7.2766964e-117
7.2758241e-117
7.2802023e-117
7.2872554e-117
7.2847367e-117
7.2782006e-117
7.278006e-117
7.285967e-117
7.2859511e-117
7.2831022e-117
7.2767244e-117
7.2844483e-117
7.2803744e-117
7.2803082e-117
7.2735065e-117
7.2871191e-117
7.280227e-117
7.2841684e-117
7.2798748e-117
7.2804597e-117
7.2762049e-117
7.28281e-117
7.2806996e-117
7.2830086e-117
7.2774342e-117
7.2781403e-117
7.279519e-117
7.2803914e-117
7.2803574e-117
7.2951642e-117
7.3011612e-117
2.0037393e-121
2.0037255e-121
2.0044514e-121
2.0056039e-121
2.0059996e-121
2.004257e-121
2.004266e-121
2.0059223e-121
2.0069596e-121
2.0061465e-121
2.0050528e-121
2.0044514e-121
2.0039476e-121
2.0030773e-121
2.0050457e-121
2.0078879e-121
2.0037112e-121
2.0062209e-121
2.0038478e-121
2.0042989e-121
2.0039035e-121
2.0050976e-121
2.0072252e-121
2.0061077e-121
2.0044785e-121
2.004556e-121
2.0066738e-121
2.006626e-121
2.0057625e-121
2.0041788e-121
2.0067055e-121
2.0050846e-121
2.0049732e-121
2.0030911e-121
2.0069594e-121
2.0050338e-121
2.0062071e-121
2.0052806e-121
2.0051312e-121
2.004024e-121
2.0059648e-121
2.0053253e-121
2.0058314e-121
2.0045216e-121
2.0043376e-121
2.0049846e-121
2.0053557e-121
2.005576e-121
2.0093892e-121
2.0108955e-121
5.5185525e-126
5.518645e-126
5.5212932e-126
5.5234169e-126
5.5251544e-126
5.5205453e-126
5.5204329e-126
5.5251175e-126
5.5281555e-126
5.5259253e-126
5.5223637e-126
5.5204231e-126
5.5190714e-126
5.5167933e-126
5.5223752e-126
5.5307009e-126
5.5190037e-126
5.5252612e-126
5.5193215e-126
5.5207674e-126
5.5198425e-126
5.5222736e-126
5.5284151e-126
5.5244925e-126
5.5206076e-126
5.5210895e-126
5.5268179e-126
5.5266542e-126
5.5241439e-126
5.5198345e-126
5.5276454e-126
5.5221553e-126
5.5216664e-126
5.516436e-126
5.5274362e-126
5.5220812e-126
5.5253399e-126
5.5235093e-126
5.5221497e-126
5.5196963e-126
5.5251887e-126
5.5229867e-126
5.5242494e-126
5.5212972e-126
5.519708e-126
5.52263e-126
5.52349e-126
5.5248439e-126
5.534545e-126
5.5384593e-126
1.5199517e-130
1.5199186e-130
1.520842e-130
1.5212576e-130
1.5218013e-130
1.5204704e-130
1.5206311e-130
1.5218959e-130
1.5227158e-130
1.5220073e-130
1.5210652e-130
1.5203358e-130
1.5199884e-130
1.5195086e-130
1.5210571e-130
1.5233539e-130
1.5202419e-130
1.5216784e-130
1.520259e-130
1.5207635e-130
1.5205557e-130
1.5209076e-130
1.522593e-130
1.52153e-130
1.5204727e-130
1.5205911e-130
1.5222673e-130
1.5221282e-130
1.5214026e-130
1.5204052e-130
1.5225858e-130
1.5209286e-130
1.5206965e-130
1.5191798e-130
1.5223216e-130
1.5208024e-130
1.5217591e-130
1.5213959e-130
1.5208513e-130
1.5204568e-130
1.5218111e-130
1.5211322e-130
1.5215476e-130
1.5207616e-130
1.5200984e-130
1.5211481e-130
1.5213587e-130
1.521799e-130
1.5244752e-130
1.5254096e-130
4.1859964e-135
4.1861925e-135
4.1890259e-135
4.1901369e-135
4.1916467e-135
4.1874312e-135
4.1883909e-135
4.1919526e-135
4.1942395e-135
4.1922947e-135
4.1894609e-135
4.1871682e-135
4.1862343e-135
4.185135e-135
4.189518e-135
4.1960256e-135
4.1876719e-135
4.1911528e-135
4.1871411e-135
4.1890629e-135
4.1885132e-135
4.1888745e-135
4.1937551e-135
4.1908904e-135
4.1875008e-135
4.1879675e-135
4.1929412e-135
4.1922132e-135
4.1901389e-135
4.1878599e-135
4.1937836e-135
4.189057e-135
4.1882777e-135
4.1838018e-135
4.1926294e-135
4.1885275e-135
4.1914585e-135
4.190438e-135
4.1888911e-135
4.1883755e-135
4.1915008e-135
4.1895924e-135
4.1911309e-135
4.1888598e-135
4.1865158e-135
4.1896361e-135
4.1903776e-135
4.1914307e-135
4.1991738e-135
4.20143e-135
1.1527182e-139
1.1529777e-139
1.1537966e-139
1.1541992e-139
1.1545082e-139
1.1533104e-139
1.153636e-139
1.1545944e-139
1.1552588e-139
1.1548092e-139
1.1538987e-139
1.1531923e-139
1.1530248e-139
1.1526394e-139
1.1539024e-139
1.155822e-139
1.1534915e-139
1.1544814e-139
1.1532157e-139
1.1538906e-139
1.1536736e-139
1.1537015e-139
1.1551326e-139
1.1542845e-139
1.1532772e-139
1.1535106e-139
1.1548943e-139
1.1546651e-139
1.1541153e-139
1.1533303e-139
1.1550838e-139
1.1538348e-139
1.1535969e-139
1.1522723e-139
1.1546732e-139
1.1536368e-139
1.1545473e-139
1.1542135e-139
1.1537635e-139
1.1537233e-139
1.1544807e-139
1.1539681e-139
1.1544111e-139
1.1538069e-139
1.1530432e-139
1.1539273e-139
1.1542722e-139
1.1544564e-139
1.1566393e-139
1.1572118e-139
3.1743597e-144
3.1756199e-144
3.1779098e-144
3.1793552e-144
3.1797812e-144
3.1767991e-144
3.1779732e-144
3.1803426e-144
3.1821417e-144
3.1810958e-144
3.1782619e-144
3.1761199e-144
3.1760557e-144
3.1746732e-144
3.1781201e-144
3.1839316e-144
3.1773431e-144
3.1802068e-144
3.1763745e-144
3.1784757e-144
3.1778656e-144
3.1777514e-144
3.1816639e-144
3.1791912e-144
3.1763414e-144
3.177257e-144
3.1812458e-144
3.180368e-144
3.1789657e-144
3.1764394e-144
3.1816383e-144
3.1783696e-144
3.1775579e-144
3.173576e-144
3.1803216e-144
3.1776126e-144
3.1801714e-144
3.1794845e-144
3.1781097e-144
3.1781512e-144
3.1801158e-144
3.1786877e-144
3.1797135e-144
3.1778886e-144
3.1760096e-144
3.1782584e-144
3.1797508e-144
3.1800696e-144
3.1859755e-144
3.1875432e-144
8.7638774e-149
8.7661805e-149
8.7726576e-149
8.7768957e-149
8.7777859e-149
8.7703226e-149
8.7736287e-149
8.7809403e-149
8.7849717e-149
8.7822924e-149
8.7741152e-149
8.7674851e-149
8.7679288e-149
8.7639714e-149
8.7731849e-149
8.7904191e-149
8.7716226e-149
8.7799591e-149
8.7680968e-149
8.7748022e-149
8.7741103e-149
8.7728798e-149
8.7829881e-149
8.7763081e-149
8.7681225e-149
8.7709601e-149
8.7832522e-149
8.7791387e-149
8.7753003e-149
8.7688416e-149
8.7839192e-149
8.7742975e-149
8.7719445e-149
8.7600327e-149
8.7799908e-149
8.7719399e-149
8.7793409e-149
8.7785235e-149
8.7742258e-149
8.7747008e-149
8.7794735e-149
8.7756794e-149
8.7778652e-149
8.7723554e-149
8.7688549e-149
8.7736707e-149
8.7783683e-149
8.7798057e-149
8.7955329e-149
8.7990656e-149
2.8126952e-153
2.7769987e-153
2.7747311e-153
2.7746766e-153
2.7745255e-153
2.7723133e-153
2.7730168e-153
2.775272e-153
2.7760053e-153
2.7752588e-153
2.7730111e-153
2.7710502e-153
2.771191e-153
2.7701442e-153
2.7724208e-153
2.7774836e-153
2.7722255e-153
2.7744631e-153
2.7708491e-153
2.7730828e-153
2.7731694e-153
2.7725649e-153
2.7750897e-153
2.7734989e-153
2.7710904e-153
2.7718354e-153
2.7754461e-153
2.7739701e-153
2.7729869e-153
2.7714055e-153
2.7755966e-153
2.7727772e-153
2.7721373e-153
2.768591e-153
2.7745569e-153
2.772043e-153
2.7742877e-153
2.7742905e-153
2.7728299e-153
2.7732152e-153
2.7742621e-153
2.7733765e-153
2.7737287e-153
2.7722572e-153
2.7716558e-153
2.7725148e-153
2.7739254e-153
2.7746469e-153
2.7787741e-153
2.7540536e-153
8.3570171e-157
7.6308892e-157
7.5465899e-157
7.5248111e-157
7.5158559e-157
7.5107057e-157
7.5081823e-157
7.506979e-157
7.5058164e-157
7.5046579e-157
7.503303e-157
7.5022093e-157
7.5018202e-157
7.5012248e-157
7.5014827e-157
7.5027272e-157
7.5011615e-157
7.5015874e-157
7.5004316e-157
7.5010355e-157
7.5010396e-157
7.5007426e-157
7.5012963e-157
7.5008963e-157
7.5001395e-157
7.5002726e-157
7.5012673e-157
7.5008024e-157
7.5004695e-157
7.5000359e-157
7.501165e-157
7.5003314e-157
7.5000707e-157
7.4990463e-157
7.5007488e-157
7.4999747e-157
7.5006057e-157
7.5006431e-157
7.5001875e-157
7.5003479e-157
7.5006393e-157
7.50039e-157
7.5004382e-157
7.5000863e-157
7.5000569e-157
7.5001489e-157
7.5005947e-157
7.5009459e-157
7.5011944e-157
6.9852286e-157
1.5456521e-159
1.3954241e-159
1.3778824e-159
1.3733392e-159
1.3714789e-159
1.3705159e-159
1.3699398e-159
1.3695596e-159
1.3692897e-159
1.36909e-159
1.3689371e-159
1.3688189e-159
1.368728e-159
1.3686556e-159
1.3686004e-159
1.3685597e-159
1.3685203e-159
1.3684936e-159
1.3684677e-159
1.3684513e-159
1.3684363e-159
1.3684225e-159
1.3684126e-159
1.3684014e-159
1.3683896e-159
1.3683806e-159
1.368374e-159
1.3683635e-159
1.3683534e-159
1.368343e-159
1.3683375e-159
1.3683267e-159
1.3683181e-159
1.3683085e-159
1.3683074e-159
1.3683004e-159
1.3682987e-159
1.3682968e-159
1.3682948e-159
1.3682959e-159
1.3682987e-159
1.3683006e-159
1.3683042e-159
1.3683076e-159
1.3683124e-159
1.3683166e-159
1.3683248e-159
1.3683297e-159
1.368149e-159
1.2614198e-159
3.2555045e-162
2.9296989e-162
2.8916804e-162
2.8818367e-162
2.8778078e-162
2.8757263e-162
2.8744791e-162
2.8736547e-162
2.8730727e-162
2.8726438e-162
2.8723187e-162
2.8720677e-162
2.8718718e-162
2.8717176e-162
2.8715958e-162
2.8714993e-162
2.8714223e-162
2.871361e-162
2.8713115e-162
2.8712714e-162
2.8712381e-162
2.8712098e-162
2.871185e-162
2.8711623e-162
2.8711408e-162
2.87112e-162
2.8710996e-162
2.8710791e-162
2.8710588e-162
2.8710387e-162
2.8710194e-162
2.8710009e-162
2.8709838e-162
2.8709685e-162
2.8709556e-162
2.870945e-162
2.8709372e-162
2.8709323e-162
2.8709302e-162
2.8709312e-162
2.8709347e-162
2.8709403e-162
2.8709476e-162
2.8709562e-162
2.8709656e-162
2.870975e-162
2.8709894e-162
2.870997e-162
2.8705663e-162
2.639273e-162
7.1754642e-165
6.4386007e-165
6.3526709e-165
6.3304289e-165
6.3213282e-165
6.3166298e-165
6.3138177e-165
6.3119613e-165
6.3106525e-165
6.3096889e-165
6.308959e-165
6.308396e-165
6.3079561e-165
6.30761e-165
6.3073362e-165
6.3071189e-165
6.3069457e-165
6.3068072e-165
6.3066953e-165
6.3066042e-165
6.3065284e-165
6.3064639e-165
6.3064072e-165
6.3063554e-165
6.3063064e-165
6.3062589e-165
6.3062121e-165
6.3061657e-165
6.3061196e-165
6.3060741e-165
6.30603e-165
6.3059882e-165
6.3059495e-165
6.3059148e-165
6.3058849e-165
6.3058606e-165
6.3058423e-165
6.3058305e-165
6.305825e-165
6.305826e-165
6.3058328e-165
6.3058442e-165
6.3058595e-165
6.3058776e-165
6.3058974e-165
6.3059173e-165
6.3059483e-165
6.305964e-165
6.3049142e-165
5.7821197e-165
1.6454089e-167
1.4722846e-167
1.4521076e-167
1.4468867e-167
1.4447511e-167
1.4436493e-167
1.4429905e-167
1.4425561e-167
1.4422503e-167
1.4420253e-167
1.441855e-167
1.4417237e-167
1.4416211e-167
1.4415403e-167
1.4414764e-167
1.4414256e-167
1.441385e-167
1.4413525e-167
1.4413262e-167
1.4413048e-167
1.4412869e-167
1.4412716e-167
1.4412581e-167
1.4412458e-167
1.4412342e-167
1.441223e-167
1.4412119e-167
1.4412009e-167
1.4411901e-167
1.4411793e-167
1.441169e-167
1.4411591e-167
1.44115e-167
1.4411418e-167
1.4411347e-167
1.4411289e-167
1.4411244e-167
1.4411215e-167
1.44112e-167
1.44112e-167
1.4411213e-167
1.4411238e-167
1.4411271e-167
1.441131e-167
1.4411354e-167
1.4411397e-167
1.4411467e-167
1.4411501e-167
1.4408856e-167
1.3181386e-167
3.9109718e-170
3.4900376e-170
3.4410046e-170
3.4283217e-170
3.423135e-170
3.4204606e-170
3.4188633e-170
3.4178113e-170
3.4170713e-170
3.4165275e-170
3.4161161e-170
3.415799e-170
3.4155513e-170
3.4153562e-170
3.4152017e-170
3.4150788e-170
3.4149807e-170
3.4149018e-170
3.414838e-170
3.4147857e-170
3.414742e-170
3.4147047e-170
3.4146718e-170
3.4146417e-170
3.4146133e-170
3.4145858e-170
3.4145589e-170
3.4145321e-170
3.4145056e-170
3.4144796e-170
3.4144544e-170
3.4144304e-170
3.4144082e-170
3.4143882e-170
3.4143709e-170
3.4143566e-170
3.4143456e-170
3.4143381e-170
3.4143342e-170
3.4143338e-170
3.4143365e-170
3.4143418e-170
3.4143492e-170
3.4143582e-170
3.4143682e-170
3.4143782e-170
3.4143944e-170
3.414402e-170
3.4137152e-170
3.1154421e-170
9.6030007e-173
8.5469569e-173
8.4240008e-173
8.3922087e-173
8.3792107e-173
8.3725126e-173
8.3685158e-173
8.3658862e-173
8.3640384e-173
8.3626817e-173
8.3616562e-173