/*--------------------------------*- C++ -*----------------------------------*\
  =========                 |
  \\      /  F ield         | OpenFOAM: The Open Source CFD Toolbox
   \\    /   O peration     | Website:  https://openfoam.org
    \\  /    A nd           | Version:  11
     \\/     M anipulation  |
\*---------------------------------------------------------------------------*/
FoamFile
{
    format      ascii;
    class       volVectorField;
    location    "0.5";
    object      U;
}
// * * * * * * * * * * * * * * * * * * * * * * * * * * * * * * * * * * * * * //

dimensions      [0 1 -1 0 0 0 0];

internalField   nonuniform List<vector> 
6000
(
(4.5922318e-06 -6.5185493e-21 6.4388949)
(1.1094377e-05 4.7885868e-13 6.4388883)
(2.0286425e-05 -2.1508285e-15 6.4389029)
(1.3467074e-05 -3.843189e-22 6.4388328)
(-2.5471159e-06 1.1951256e-15 6.4388521)
(-1.6793575e-05 9.7321799e-16 6.4388325)
(-1.7052651e-05 8.2753883e-16 6.4389049)
(-3.763313e-06 -3.0498344e-23 6.4388998)
(7.1765315e-06 3.3115438e-20 6.4388889)
(3.1339675e-06 5.6604499e-16 6.4388465)
(3.7962849e-06 2.6827926e-20 6.4388972)
(3.939844e-06 1.1418608e-13 6.4388357)
(7.3894833e-06 -5.7463032e-14 6.4388995)
(1.1041179e-05 -3.4934479e-21 6.4388338)
(1.3958752e-06 -2.9062976e-18 6.438829)
(8.4733814e-06 -4.6341049e-14 6.4388786)
(1.2825437e-05 -2.3331047e-21 6.4388201)
(2.9056958e-06 4.104476e-14 6.438813)
(-5.3340785e-06 -3.8826054e-14 6.4388158)
(-1.349546e-05 -3.0489408e-22 6.4388154)
(-7.2154514e-06 -2.0032094e-18 6.4388591)
(-4.9344022e-06 -8.2282729e-21 6.4387955)
(-9.1633553e-06 -1.8387422e-18 6.4388562)
(4.4723378e-06 5.7951792e-23 6.4388768)
(2.5049701e-05 -2.1285991e-16 6.4388834)
(2.7497587e-05 -2.4924369e-19 6.4388153)
(1.1637704e-05 6.0534155e-23 6.4388121)
(1.4290751e-05 -9.9574119e-21 6.4388843)
(1.7067503e-05 -1.4792764e-18 6.4388281)
(3.262489e-06 -1.814054e-16 6.4388316)
(-7.1472835e-06 -1.763362e-16 6.4388317)
(-1.8972933e-05 -1.2023964e-18 6.4388328)
(-1.6742715e-05 -6.2939157e-21 6.4389065)
(-7.8192913e-07 -8.355653e-21 6.4388896)
(1.0665081e-05 -1.2184465e-18 6.4388825)
(9.3221096e-06 2.7334995e-23 6.4388272)
(6.477463e-06 -1.473747e-16 6.438882)
(7.0277949e-06 -1.1229516e-18 6.4388391)
(-2.7244159e-06 3.1188987e-23 6.4388158)
(-1.4142317e-05 -8.3099567e-21 6.438836)
(-1.130671e-05 -9.3108644e-19 6.4388679)
(7.2099502e-06 -1.2956713e-16 6.4388918)
(8.203762e-06 -2.3221809e-19 6.4388116)
(4.9406731e-06 -1.6513181e-14 6.4388781)
(5.0400761e-06 -9.2934838e-19 6.4388379)
(6.4350064e-06 -9.0664768e-19 6.4388762)
(5.5221251e-06 -6.8435944e-25 6.4388322)
(6.6122314e-06 -8.6554453e-19 6.4389098)
(8.0589931e-06 -8.704549e-19 6.4388587)
(1.612608e-07 -1.4510847e-14 6.4388672)
(-8.5503079e-07 -1.9402576e-21 12.474908)
(-1.0685297e-06 -1.1545113e-15 12.474993)
(-3.9317321e-05 -2.6184724e-13 12.474981)
(-2.8678682e-05 -4.3943579e-21 12.475597)
(6.621699e-07 1.4546633e-13 12.4755)
(3.2390094e-05 1.1900976e-13 12.475611)
(3.1688857e-05 1.0070742e-13 12.475012)
(-1.0681834e-05 -2.4973911e-22 12.474991)
(-3.5460342e-05 4.3814757e-18 12.475054)
(4.1020897e-06 6.8904096e-14 12.475403)
(2.5023736e-06 3.4390897e-18 12.474983)
(9.4078463e-06 -1.5073134e-16 12.475442)
(-4.3176257e-06 1.3846101e-16 12.474945)
(-2.7684517e-05 -4.0551031e-23 12.475444)
(2.6972164e-05 -3.5500032e-16 12.475451)
(-7.7318898e-06 1.1168522e-16 12.475043)
(-3.5998359e-05 -3.9729321e-24 12.475506)
(-6.1116663e-06 -9.9038742e-17 12.475558)
(2.2852222e-06 9.3674519e-17 12.475524)
(2.4410652e-05 -2.634691e-22 12.475493)
(-1.0675157e-05 -2.48786e-16 12.475076)
(-5.4757564e-06 -9.6936487e-19 12.475545)
(5.4493761e-05 -2.2783233e-16 12.475064)
(3.4992084e-05 7.1632845e-21 12.474896)
(-2.6718707e-05 -2.6696889e-14 12.474884)
(-2.1392979e-05 -1.1242643e-17 12.475481)
(5.6746573e-05 6.801039e-21 12.475543)
(2.026967e-05 -1.3095696e-18 12.475032)
(-2.4371134e-05 -1.8100503e-16 12.475527)
(4.2118458e-06 -2.2188086e-14 12.475528)
(2.3280709e-06 -2.1463417e-14 12.475518)
(3.3286041e-05 -1.5635382e-16 12.475478)
(2.6816565e-05 -7.0588224e-19 12.474871)
(-1.9264216e-05 -1.1045521e-18 12.47496)
(-3.7042621e-05 -1.4885986e-16 12.475007)
(-9.3942679e-06 3.6576021e-21 12.475469)
(7.8526087e-07 -1.7935108e-14 12.475092)
(-3.069149e-05 -1.3732354e-16 12.475414)
(-1.2442079e-05 3.6911104e-21 12.475556)
(3.2865833e-05 -1.0198482e-18 12.475388)
(3.7719219e-05 -1.2080357e-16 12.475064)
(-3.1707268e-05 -1.5773459e-14 12.4749)
(-1.342997e-05 -1.1765496e-17 12.475539)
(1.3090111e-05 -7.2865877e-17 12.475051)
(1.080022e-05 -1.1541455e-16 12.47541)
(6.3793095e-06 -1.1219551e-16 12.475091)
(2.0975879e-05 -8.2481818e-23 12.475489)
(1.6292048e-05 -1.0740757e-16 12.474956)
(-8.5097234e-06 -1.0642403e-16 12.475409)
(1.1572915e-05 3.4992764e-17 12.475318)
(8.0165553e-05 -2.66104e-19 13.945936)
(0.00021975327 1.8324466e-18 13.945871)
(0.00036502519 -6.6872675e-16 13.946685)
(0.00023686134 -3.7422843e-20 13.945004)
(-7.3368156e-05 -2.250329e-16 13.945827)
(-0.00030285316 -1.8691742e-16 13.944946)
(-0.00029183599 -1.5953054e-16 13.946494)
(-7.6409842e-05 -6.8862814e-22 13.946223)
(0.00017211434 6.3216912e-16 13.946119)
(7.1335528e-05 -1.0587321e-16 13.944946)
(2.8319497e-05 4.9539832e-16 13.946696)
(9.1956494e-06 2.3238925e-19 13.944772)
(4.8521024e-05 -2.2159755e-19 13.946942)
(6.6656634e-05 -7.0532597e-21 13.945056)
(-7.9808855e-05 -4.8797592e-14 13.945149)
(0.00015373094 -1.7931846e-19 13.946595)
(0.00024542566 -1.777265e-25 13.945087)
(6.6988054e-05 1.5348639e-19 13.945193)
(-6.190654e-05 -1.4530249e-19 13.945341)
(-0.00021417644 -3.9192699e-20 13.945005)
(-5.2295096e-05 -3.4516404e-14 13.946431)
(1.841273e-05 -1.3124917e-16 13.944282)
(-0.00021710898 -3.1451662e-14 13.945626)
(-0.00011055575 1.0248402e-18 13.946036)
(0.00024104658 -1.7981791e-16 13.946425)
(0.00024954455 -2.5468838e-14 13.944682)
(-4.8204446e-05 8.6834616e-19 13.944813)
(7.5726138e-05 -1.8936241e-16 13.946826)
(0.00019102008 -2.4832961e-14 13.945086)
(-5.5301243e-05 3.4965372e-17 13.945448)
(-0.0001150738 -6.6128195e-17 13.94556)
(-0.00024095871 -2.2390276e-14 13.944984)
(-0.00026943336 -9.104645e-17 13.94671)
(7.0484609e-06 -1.5976035e-16 13.94592)
(0.00018159912 -2.0516445e-14 13.946136)
(0.00018547507 5.2764799e-19 13.944731)
(0.0001369166 -1.1717983e-16 13.946329)
(0.00010082314 -1.8874951e-14 13.945507)
(-3.271053e-05 4.9466768e-19 13.945049)
(-0.00027986521 -1.4015262e-16 13.945083)
(-0.00021961295 -1.7414859e-14 13.945948)
(0.00016649512 2.5764094e-17 13.946643)
(0.00014490642 -1.1884495e-16 13.944284)
(4.265278e-06 -1.6219041e-14 13.946413)
(-8.8578334e-05 -1.5899437e-14 13.944998)
(-3.130213e-05 -1.5550479e-14 13.946369)
(7.4949931e-06 -1.2275557e-20 13.944689)
(-4.2970808e-06 -1.4898407e-14 13.946957)
(-4.9205845e-05 -1.4592758e-14 13.945343)
(-0.00012136998 -5.1248188e-20 13.945973)
(-3.3806733e-06 -3.9746618e-17 14.186655)
(6.6689883e-05 -9.6201859e-21 14.186206)
(0.00043576417 -1.6990941e-13 14.18678)
(0.00027285076 -5.2276811e-18 14.193639)
(0.00012105325 3.7198381e-19 14.193657)
(-0.00020963968 -4.6878004e-16 14.193038)
(-0.00037195964 -4.1352807e-18 14.188124)
(-4.9449401e-05 -6.2631576e-20 14.186865)
(-2.392159e-05 9.9556207e-14 14.186639)
(-0.00029686932 -2.3482456e-18 14.194435)
(-0.00010213046 4.3599686e-14 14.186348)
(3.3945919e-05 4.692219e-20 14.193817)
(0.00023865328 3.466449e-22 14.185565)
(0.00040660348 1.0401621e-23 14.193709)
(-0.00025191248 5.7423927e-17 14.190048)
(-0.00029330772 2.6233899e-22 14.185474)
(5.7879749e-06 4.6537025e-28 14.192947)
(-5.9511845e-05 -2.3393421e-22 14.192332)
(-6.5943455e-06 2.3161023e-22 14.192262)
(-0.0001026683 9.246743e-23 14.192817)
(4.9143174e-05 4.824814e-17 14.18508)
(-0.00013017823 -1.9824647e-14 14.194128)
(-0.00042985005 5.0552912e-17 14.191293)
(-2.823774e-05 1.6142393e-16 14.186072)
(0.000507893 -3.4663106e-14 14.185745)
(0.00037761732 1.2223334e-18 14.193846)
(-0.00023096443 1.2316943e-16 14.193361)
(4.8418141e-05 -1.6646588e-14 14.184966)
(0.00039294318 3.6897245e-17 14.19348)
(0.00030024082 1.0077553e-16 14.193134)
(6.165769e-05 -1.4029213e-14 14.189549)
(-0.00041074927 3.1403227e-17 14.194071)
(-0.00026531505 -1.3156152e-14 14.186379)
(2.6760123e-05 -2.526175e-14 14.186604)
(0.0001951177 3.0605614e-17 14.188399)
(-0.0001743308 7.9496511e-17 14.191139)
(-0.00035014423 -1.2631669e-14 14.190151)
(0.00019247919 2.9333082e-17 14.191155)
(0.0002391311 7.5574129e-17 14.192981)
(-0.00013822052 -1.1694319e-14 14.193407)
(-0.0003133937 2.2177254e-17 14.18577)
(0.0001912689 9.1243121e-17 14.185608)
(4.2264642e-05 2.0451305e-18 14.194796)
(-3.8570423e-05 2.5623496e-17 14.188487)
(0.00029494836 2.3413118e-17 14.193538)
(0.00028384431 2.0658015e-17 14.185443)
(-4.3758971e-05 4.2747356e-19 14.193894)
(-1.2639612e-05 2.2553417e-17 14.186378)
(0.00036124684 2.1583167e-17 14.194155)
(0.00014467888 8.553353e-23 14.187365)
(-0.00027609192 -5.1566429e-15 14.227663)
(-0.00064731756 -7.1246139e-22 14.225627)
(-0.00090797115 4.1689279e-17 14.221516)
(-0.00056105493 -1.057868e-15 14.235621)
(0.00029362556 -2.4147577e-20 14.225976)
(0.00071433217 -9.5342015e-14 14.238733)
(0.00070622012 -6.8731452e-16 14.224282)
(0.0003502002 -2.5406813e-18 14.227091)
(-0.00042946715 -9.593195e-18 14.228912)
(-0.00037087633 -4.9959039e-16 14.232706)
(-0.00016083283 -1.1298896e-17 14.220086)
(1.139894e-05 -1.3946774e-22 14.232215)
(-6.4897813e-05 -1.0234188e-25 14.219737)
(-0.00010290373 -2.5770621e-22 14.232881)
(-5.4956638e-05 -1.7785877e-16 14.236433)
(-0.00068890266 -5.7556737e-22 14.221225)
(-0.00068231849 4.3658923e-27 14.22873)
(-0.00014275331 4.9708441e-25 14.228319)
(0.00035090739 -4.5730762e-25 14.226272)
(0.00069871937 8.6174527e-23 14.230829)
(0.00014821731 -2.3051998e-16 14.220812)
(-0.00014160726 7.0166604e-17 14.236337)
(0.00049771858 -2.0485e-16 14.223729)
(0.00042632997 2.2069399e-14 14.22167)
(-0.00038889123 1.1666752e-17 14.220618)
(-0.00047599678 -1.6267669e-16 14.235472)
(9.5765895e-05 1.9731884e-14 14.231112)
(-0.00017171081 5.0171625e-18 14.218533)
(-0.00026520108 -1.6193215e-16 14.229955)
(0.00052371957 1.7604773e-14 14.228113)
(0.00055122273 1.9425369e-17 14.233268)
(0.00052923877 -7.6845165e-18 14.232662)
(0.00054166348 8.3536684e-18 14.220788)
(-0.00021601299 3.1491625e-18 14.228633)
(-0.00061967603 -1.333039e-16 14.222732)
(-0.00081581751 1.4689734e-14 14.239146)
(-0.00076418793 2.6450385e-17 14.220044)
(-0.00030930497 -1.2218648e-16 14.224818)
(0.00015331413 1.3492408e-14 14.229361)
(0.00069050308 6.5877104e-17 14.233772)
(0.00046056948 -1.06236e-17 14.224828)
(-0.00041306421 2.3923767e-14 14.219652)
(-0.00044986763 -7.5175105e-17 14.237965)
(8.0518564e-06 -1.0592348e-16 14.219154)
(0.00046571091 -1.0341691e-16 14.229899)
(0.00028321089 -5.6670511e-17 14.226201)
(8.2397194e-05 9.5347136e-17 14.236474)
(0.00032902219 -8.5715221e-17 14.220045)
(0.00068118122 -9.788276e-17 14.230103)
(0.00054427185 -1.3399929e-22 14.231473)
(-2.4829285e-05 -1.2743972e-12 14.239246)
(-0.0003607169 -5.9107912e-20 14.237817)
(-0.00089263517 -6.3756485e-19 14.233648)
(-0.00049658422 -1.8163503e-13 14.232472)
(-8.0488751e-05 -6.8052534e-20 14.226054)
(0.00041560274 -1.1492298e-13 14.238481)
(0.00072798324 -9.7620045e-14 14.229665)
(0.00039198447 -7.78067e-14 14.238008)
(0.00014776671 3.0322891e-20 14.240256)
(0.00031986783 -6.6769067e-14 14.231747)
(9.3433489e-05 -9.7703952e-20 14.232592)
(-6.5008441e-05 7.4639545e-27 14.231435)
(-0.00042411732 -4.9780117e-25 14.235652)
(-0.00062266328 -5.0971378e-20 14.231553)
(0.00026250521 -4.395236e-14 14.241397)
(0.00034065253 -8.3238955e-20 14.233018)
(7.1916691e-05 -4.5576177e-28 14.228874)
(0.00013736862 -9.1091573e-28 14.229614)
(9.9986467e-05 -2.8723627e-25 14.227504)
(0.00036615516 2.8226893e-20 14.234057)
(0.00010830195 -3.1056705e-14 14.237488)
(0.00021450799 -4.8724786e-20 14.233046)
(0.00063894032 -2.3939217e-15 14.226658)
(0.00010861755 1.0131427e-16 14.235498)
(-0.00069971097 -1.2527814e-19 14.235586)
(-0.00046646021 -2.490495e-14 14.232749)
(0.00028679502 2.0646556e-16 14.231846)
(-0.00020262146 -5.0869445e-20 14.235192)
(-0.00066611075 -2.2269542e-14 14.228349)
(-0.00045602069 9.3309017e-17 14.228135)
(3.2379845e-05 -8.4185948e-20 14.240845)
(0.00079144529 -1.8671909e-14 14.233305)
(0.0005619833 -3.3280436e-20 14.234855)
(-2.6535586e-05 -1.4205433e-20 14.2405)
(-0.00046160348 -1.8428405e-14 14.23058)
(-7.3405197e-05 1.8610797e-17 14.242164)
(0.00035901281 -2.3735358e-20 14.225214)
(-0.00030826334 -1.6911261e-14 14.228517)
(-0.00045921564 7.1695341e-17 14.229375)
(0.00019796475 -1.6462594e-19 14.23183)
(0.00039607121 -1.4462058e-14 14.236442)
(-0.0004442397 5.5820769e-17 14.234034)
(-0.00024879678 -1.4865038e-14 14.232867)
(-9.4482648e-05 -1.4593741e-14 14.226573)
(-0.00055427703 -1.4256329e-14 14.229548)
(-0.00042982582 -1.4001963e-14 14.238142)
(0.0001042757 1.3653885e-14 14.232903)
(0.00023148164 -1.3367375e-14 14.229152)
(-0.000115698 -1.3077628e-14 14.230712)
(-4.4985647e-05 4.6227641e-21 14.243938)
(0.00019122371 2.1214647e-22 14.235179)
(0.00029624578 1.0752292e-22 14.23979)
(0.00024298242 -6.3204159e-20 14.234371)
(0.00016523969 6.4928064e-17 14.231662)
(-5.1700219e-05 8.0300183e-20 14.231048)
(3.8220227e-07 1.3663764e-13 14.234576)
(-7.9632721e-05 3.4956973e-17 14.230362)
(-0.00018864229 2.1819217e-23 14.235382)
(0.00010049277 1.0714511e-26 14.238216)
(0.00011780224 1.4762218e-20 14.234454)
(-4.953194e-05 8.7097612e-25 14.234477)
(-0.00011740632 7.8242729e-28 14.234111)
(-6.208318e-05 -3.9551482e-23 14.23761)
(-7.1570205e-05 5.2806847e-24 14.232411)
(0.00023007655 1.9755365e-17 14.235271)
(0.00056987661 -5.3775486e-23 14.23392)
(0.00041642044 -2.7961176e-27 14.232186)
(4.0092769e-05 -1.3999163e-27 14.236193)
(-0.00038223703 -3.7635206e-23 14.232014)
(-0.00025965562 -8.5328832e-23 14.234251)
(0.00031378684 1.3081333e-16 14.238506)
(0.00049196395 9.8831215e-23 14.234212)
(-2.224196e-05 9.2551256e-17 14.233052)
(-0.00036992998 1.6804076e-14 14.237167)
(-0.00016044079 -3.8439215e-21 14.236899)
(-6.8228681e-05 8.9934273e-21 14.232104)
(-8.3793436e-05 1.602534e-14 14.237373)
(7.7518988e-05 1.5054534e-20 14.237503)
(-9.7741835e-05 1.6638551e-17 14.234501)
(-0.00061961089 2.5347366e-14 14.232377)
(-0.00037320834 -1.6518672e-21 14.234045)
(0.00023852371 7.9680313e-19 14.232805)
(0.00020705602 2.4835626e-24 14.238283)
(0.0002744578 1.8551274e-23 14.237573)
(0.00023080563 5.6548424e-17 14.237311)
(0.00056520293 1.1140164e-14 14.233862)
(0.00084642431 6.5327176e-21 14.231457)
(0.00011123925 2.8158361e-19 14.237338)
(-0.00036497984 1.0183862e-14 14.233045)
(-0.00040273854 4.9689035e-22 14.231314)
(-0.00024442498 6.7436742e-20 14.237725)
(-5.73189e-06 1.8022949e-14 14.236005)
(0.00012911421 3.2015842e-20 14.231576)
(-0.00019533712 1.6783938e-17 14.234219)
(-0.00066647072 -9.4971919e-25 14.233416)
(-0.00033370776 4.3096186e-18 14.231547)
(1.0230878e-05 -4.924311e-18 14.232595)
(-0.00040990355 4.7817984e-18 14.230077)
(-0.00090351963 2.9767241e-21 14.234438)
(-0.00053499565 -1.7082881e-23 14.238215)
(4.4046266e-05 -5.1776119e-24 14.235747)
(0.000391512 -3.411991e-24 14.238627)
(0.000485933 -8.5594724e-18 14.235106)
(0.00029160464 -5.0890498e-19 14.234148)
(4.4960497e-05 6.0985991e-20 14.229727)
(-0.00014109934 1.6668863e-13 14.237572)
(-0.00037020291 4.0085773e-21 14.235019)
(-0.00041737004 5.4608096e-27 14.237767)
(-2.0135735e-05 -4.5980262e-29 14.240544)
(0.00010555139 -4.5717519e-23 14.235143)
(-2.3853121e-05 -6.0804346e-28 14.233969)
(1.3434863e-05 -4.0897696e-27 14.232327)
(0.00020902445 -5.1620826e-21 14.235683)
(0.00013129893 -7.403327e-26 14.233719)
(1.4888313e-05 -1.2253351e-19 14.237172)
(0.00018352935 -1.016178e-20 14.234487)
(0.00014890849 -9.2380638e-27 14.232074)
(0.00013682348 -3.0893424e-27 14.237081)
(-3.9721392e-05 -4.979014e-21 14.231394)
(-0.0003064239 -1.6117287e-26 14.229906)
(-0.00011312395 -4.1830173e-23 14.234858)
(9.7114596e-06 -3.0525108e-25 14.23728)
(-0.0002015656 1.8487832e-20 14.235506)
(-0.00022734352 2.0328719e-14 14.237191)
(-0.00012956492 -8.301044e-19 14.235102)
(-0.00020527705 6.623694e-21 14.235271)
(-4.4760252e-05 3.441281e-14 14.233829)
(0.00026779795 2.1122876e-20 14.234897)
(0.00034444724 1.4558548e-21 14.235332)
(0.00016639439 3.1008818e-14 14.233305)
(-9.3902251e-05 -5.6722679e-19 14.234054)
(-0.00030481447 -7.7142807e-22 14.23063)
(-0.00024883679 -1.1001005e-26 14.240592)
(2.4036359e-05 -7.8932848e-26 14.239133)
(0.00029905211 3.0766291e-22 14.237563)
(0.00049988614 1.444871e-14 14.233852)
(0.00029163011 -8.9314853e-19 14.231782)
(7.5633375e-05 -2.1381393e-21 14.240754)
(1.7809946e-05 2.3759224e-14 14.233258)
(-0.00027448882 2.3500653e-21 14.234466)
(-0.0001986702 3.275589e-22 14.237956)
(0.00019796918 2.2046815e-14 14.23519)
(0.00010644273 5.4673228e-21 14.234349)
(-6.7698047e-06 -2.7566949e-27 14.234898)
(7.7232418e-05 5.851975e-29 14.233328)
(-8.3370254e-06 -1.8842888e-20 14.231448)
(8.9629275e-06 6.486449e-21 14.236365)
(-0.00014692664 -9.3545872e-21 14.235195)
(-0.00043197769 -2.6408737e-23 14.234649)
(-0.00023460233 -2.6733777e-27 14.235618)
(6.2486212e-05 -2.5878037e-26 14.235007)
(0.00026113249 -1.5330635e-22 14.234639)
(0.0002303249 -2.1358449e-15 14.235917)
(1.1476003e-05 6.5566324e-22 14.232905)
(-0.00040902942 -2.6069457e-21 14.233421)
(-0.00044079437 -8.6013919e-16 14.237731)
(-0.00033202379 3.1593312e-22 14.234986)
(-0.00025190051 1.3840085e-27 14.235497)
(0.00025876582 -4.1206624e-27 14.235161)
(0.00048216897 2.5165532e-25 14.23763)
(0.00038342779 -3.2542221e-27 14.234585)
(0.000188198 -4.2904723e-25 14.233161)
(8.1141926e-05 -1.3468356e-18 14.235963)
(-9.4419526e-05 -1.1663943e-24 14.236624)
(-0.00010326828 5.1763407e-22 14.23474)
(0.00014903585 -1.3979257e-18 14.233037)
(5.6364608e-05 -1.3065421e-24 14.234325)
(5.552227e-05 -3.4804171e-25 14.235876)
(5.8119167e-05 -6.5794924e-19 14.236972)
(-0.00039759632 -2.6968999e-25 14.234331)
(-0.00066340616 1.7918356e-25 14.236045)
(-0.00043557876 -9.1068794e-26 14.237156)
(-0.00021333585 4.9410321e-25 14.235964)
(6.6542121e-05 1.3351875e-16 14.236806)
(0.00021327529 -1.1163244e-16 14.237918)
(0.00024255176 -2.9142293e-22 14.23284)
(0.00024962914 5.5306804e-17 14.232423)
(0.00016750008 6.3360218e-23 14.235595)
(0.00024232123 -1.547628e-23 14.23466)
(0.0001613129 -7.2893172e-17 14.235642)
(-0.00018924661 -8.7881189e-17 14.23656)
(-0.00068131499 -1.841149e-23 14.235266)
(-0.00057873051 -6.9863285e-26 14.237585)
(1.5286205e-05 -9.005617e-26 14.238112)
(0.00032362515 1.1535351e-23 14.234946)
(0.00027889373 3.8732653e-17 14.23389)
(-8.8569972e-05 -1.4575124e-16 14.235599)
(5.5209334e-05 -4.6269509e-26 14.239845)
(0.00027132803 8.015636e-17 14.235001)
(-3.9208761e-05 5.1672534e-23 14.23631)
(-3.7858922e-05 -1.1190222e-23 14.234166)
(0.0001710408 -5.3246737e-17 14.235462)
(0.00018724001 -7.9708922e-25 14.235756)
(0.00018672523 -1.6180914e-27 14.233166)
(0.00023870836 -7.9048731e-29 14.234078)
(-3.8168718e-05 8.6613554e-25 14.233581)
(-8.5446227e-05 9.4985835e-19 14.231947)
(0.00015161519 4.8652378e-25 14.235612)
(6.1542965e-05 1.6727242e-25 14.237246)
(-1.0096016e-05 3.5420467e-27 14.236189)
(1.942634e-05 -3.3547181e-26 14.234176)
(3.5241287e-08 3.3730634e-20 14.23546)
(4.1788896e-05 -2.4138317e-14 14.237607)
(-8.6692221e-05 -9.4011103e-20 14.235207)
(-0.00039634816 -5.3293652e-20 14.23579)
(-0.00017871792 -1.3040266e-13 14.233913)
(7.2703393e-05 -8.4692544e-20 14.237613)
(2.3630128e-05 9.449753e-28 14.234137)
(-6.1285056e-05 1.6851184e-27 14.234079)
(4.4292851e-05 2.1948646e-28 14.236468)
(0.00012086763 -2.5075908e-27 14.2341)
(-0.00013415263 -1.065783e-22 14.236116)
(-0.00012335963 -1.7908685e-16 14.235787)
(6.4901119e-05 -2.4552931e-22 14.23967)
(3.3892244e-05 -4.9154451e-23 14.233797)
(-0.00013131104 -2.1074114e-16 14.233982)
(-0.00036990004 -6.582946e-23 14.235098)
(-0.00039701635 -8.7438038e-23 14.236132)
(-7.2597499e-05 -1.7245219e-16 14.235349)
(-1.5474118e-05 -9.7296457e-24 14.236738)
(-0.00012684085 9.1593554e-29 14.234428)
(3.6633793e-05 -2.5618631e-23 14.234371)
(0.00018257702 1.1821365e-21 14.233729)
(0.00018174334 2.5690735e-15 14.232146)
(0.00035948764 -2.9177462e-14 14.23668)
(0.0004127412 -3.6134799e-20 14.231937)
(8.8091786e-05 2.6016189e-14 14.234576)
(-0.00013122588 4.3904364e-21 14.235066)
(-0.00012281804 1.2455834e-25 14.234475)
(-7.4073709e-05 2.3430318e-21 14.236163)
(-8.4884574e-05 -2.2519664e-14 14.238651)
(-0.00028620539 -6.631811e-21 14.235441)
(-0.00037890442 -9.613211e-24 14.233756)
(-5.9350039e-05 -2.2925972e-23 14.23491)
(0.0001771954 5.4484144e-22 14.235541)
(4.0392792e-05 1.9361082e-14 14.235682)
(-3.8618574e-05 -1.9573408e-14 14.235504)
(0.00029902053 -3.4177356e-21 14.234538)
(0.00043876156 1.8563004e-14 14.235109)
(0.00018988149 8.0923414e-21 14.236935)
(2.431804e-05 4.8217951e-26 14.234855)
(4.1565837e-05 1.4065553e-23 14.233638)
(0.00022991559 6.0867479e-27 14.234437)
(0.00027239731 1.4622813e-27 14.233936)
(0.00022205603 -2.0495995e-28 14.232203)
(0.00016887816 5.1973189e-23 14.236382)
(-0.00015043552 1.3477615e-16 14.230623)
(-0.00036993925 -5.4067065e-23 14.235411)
(-0.00023671966 -5.1543157e-28 14.236856)
(-6.6124005e-05 -1.4230622e-27 14.23602)
(-8.3445717e-05 3.6033697e-26 14.234534)
(-0.00018046299 -3.5053387e-22 14.235179)
(7.8706435e-05 -3.5819246e-16 14.235382)
(0.00015420478 -1.9021218e-22 14.235619)
(8.9798903e-05 3.6256308e-22 14.237435)
(-1.9619239e-05 -4.2791564e-16 14.230843)
(-5.488971e-06 -2.4169788e-22 14.236537)
(0.00012223742 -1.8574512e-27 14.235249)
(-0.00014579176 3.7103954e-27 14.237376)
(-0.00032540833 4.2162454e-27 14.234497)
(-0.0003894394 1.4517556e-27 14.236487)
(-0.0004498577 -1.2658111e-21 14.235827)
(-0.00021277383 -3.5128745e-14 14.233028)
(0.00026004052 -5.0783044e-20 14.237229)
(0.00026086732 -8.5727472e-21 14.235801)
(-0.00011344964 -5.4073466e-14 14.234343)
(-0.00014304903 -7.8309926e-21 14.236217)
(0.00010889808 -5.382522e-23 14.23298)
(0.00021172209 -4.5356821e-14 14.231438)
(0.00033550859 1.1994494e-22 14.236193)
(0.0004199812 -4.3309532e-27 14.233563)
(0.00026376103 -3.5880822e-21 14.233087)
(0.00023399716 4.8430695e-25 14.233772)
(7.6792286e-05 9.2684248e-17 14.236001)
(-4.4681402e-05 -7.8377574e-17 14.234249)
(-1.7202822e-05 1.2518545e-22 14.234191)
(-6.3076221e-05 7.6653383e-17 14.235491)
(-0.00020284559 -3.1095911e-21 14.236562)
(-0.00043120829 1.7972476e-26 14.233416)
(-0.00039293845 2.8140686e-21 14.235268)
(8.322739e-05 -7.7586028e-17 14.238081)
(0.00036716908 -2.8308988e-23 14.237687)
(0.00024097065 -2.4496197e-21 14.236114)
(0.00012633235 -3.0859492e-21 14.232343)
(0.00010747029 1.1812706e-22 14.234252)
(0.00017698515 1.0890502e-16 14.234991)
(0.00016902817 -1.0961842e-16 14.233619)
(0.0001258638 5.2608567e-23 14.233766)
(6.1695721e-05 5.6538584e-17 14.237168)
(9.8618024e-05 -1.4192162e-21 14.238455)
(0.00018517121 -2.8111474e-27 14.235115)
(0.00011327692 1.9408581e-21 14.233841)
(4.8947818e-05 1.9725513e-27 14.233511)
(9.469928e-05 1.7656333e-27 14.234255)
(-3.1234729e-05 2.6597892e-27 14.233657)
(-0.00012310134 4.1257572e-21 14.235651)
(-0.00025205232 1.0171857e-14 14.236752)
(-0.00043122755 1.0615931e-21 14.236613)
(-0.00017562473 2.3354298e-27 14.235725)
(1.91802e-05 -2.6502221e-27 14.235218)
(3.7854015e-05 -1.9090324e-26 14.235513)
(6.1378898e-05 2.0204986e-20 14.237347)
(8.807171e-07 -2.150884e-13 14.231828)
(1.6135466e-05 -4.1551875e-22 14.237356)
(0.00025709985 -5.7101e-21 14.234671)
(9.1915905e-05 -9.8691641e-14 14.235697)
(-0.00015207226 -1.5615294e-20 14.235108)
(-9.3918853e-05 -1.552261e-26 14.233545)
(-1.2974935e-05 -1.0200365e-27 14.239172)
(-3.1435039e-05 2.9497498e-28 14.235829)
(-3.6352459e-07 9.7152207e-28 14.236199)
(8.8548511e-05 -3.8925436e-24 14.234188)
(-2.8178026e-05 1.3022461e-17 14.229766)
(5.38281e-07 -1.7501158e-18 14.23273)
(0.00011075121 -5.2527267e-25 14.237181)
(5.5177999e-05 7.2649003e-25 14.234712)
(0.0002400511 -1.119644e-18 14.232504)
(0.00036021585 3.9746676e-24 14.230678)
(9.2201287e-05 4.2584551e-17 14.235013)
(0.00010450959 -6.5149672e-19 14.232649)
(0.00016673751 -2.3811527e-25 14.236126)
(-4.1770138e-05 -9.8200099e-19 14.235459)
(-0.00017028119 3.2487637e-21 14.233481)
(2.6354711e-05 2.2909799e-14 14.236773)
(6.5622806e-05 -2.1976796e-14 14.236585)
(-0.00023157003 1.6444117e-20 14.232375)
(-0.00025429728 2.0315927e-14 14.235213)
(-7.4069685e-05 -4.0761015e-19 14.238262)
(-0.00016035569 -1.5934512e-25 14.236189)
(-0.00028739018 3.7980245e-19 14.233305)
(-0.00016994946 -1.7577789e-14 14.23252)
(0.00016074217 -3.6811412e-23 14.236665)
(0.0004715057 -6.4532656e-19 14.235325)
(0.00022788348 -7.7482499e-19 14.235415)
(-1.8901323e-06 1.3148747e-20 14.235686)
(-3.653347e-05 1.5153861e-14 14.23508)
(-0.00021153871 -1.4736783e-14 14.237607)
(-0.00031065596 1.2127144e-20 14.234818)
(-0.00023356315 2.6872487e-14 14.23875)
(0.00020102834 -3.8348005e-19 14.236563)
(0.00052315268 -1.6821863e-25 14.236403)
(0.0003763663 5.0928843e-19 14.235335)
(8.6972056e-05 6.8109598e-25 14.235747)
(-5.4654543e-05 -6.5362932e-28 14.232929)
(-0.00022979268 5.4477253e-28 14.236448)
(-0.00038394619 -8.2048738e-23 14.235892)
(-0.00015711577 -7.930902e-17 14.235516)
(9.0823339e-05 -5.2890823e-29 14.235316)
(0.00018178755 -7.7936995e-29 14.232937)
(0.00011351266 1.7185512e-27 14.236879)
(9.7396471e-05 -2.9381925e-26 14.232613)
(0.00026861839 -1.4155136e-22 14.234716)
(-2.7090827e-05 8.5937159e-16 14.235619)
(-3.5999955e-05 -3.7266765e-22 14.234762)
(8.624432e-05 -6.7764674e-20 14.232897)
(0.00014572044 -1.2008816e-13 14.235419)
(0.00014425773 2.5821906e-21 14.236127)
(-6.5918201e-05 8.0840975e-28 14.233942)
(0.00015596861 -2.3850204e-27 14.236463)
(0.00043956892 -4.986905e-27 14.234979)
(0.00044712064 -3.5834589e-27 14.234163)
(0.00033507613 -1.3442491e-26 14.235691)
(5.0993298e-05 -5.5968516e-20 14.23331)
(-0.00022328269 -2.1743505e-16 14.233909)
(-0.00015715469 -4.0230306e-23 14.235948)
(4.8804383e-05 1.108891e-22 14.235289)
(3.4075832e-05 -1.4646766e-16 14.231523)
(-0.00016003591 -1.366724e-22 14.234133)
(-0.00017053311 -8.7367575e-24 14.235077)
(-0.00019470964 -8.4949987e-17 14.23322)
(-0.00020918525 -2.9061057e-23 14.237102)
(3.4846912e-05 -1.3547529e-16 14.235445)
(-1.9672976e-05 -4.9958772e-23 14.235025)
(-9.8305295e-05 -8.2391264e-18 14.232397)
(8.0278047e-05 -4.8629341e-21 14.238351)
(-0.00012538561 2.0849064e-25 14.236621)
(-0.00039426427 9.7067854e-19 14.23391)
(-2.9993451e-05 -1.0680934e-16 14.236017)
(0.00028793296 -4.9640803e-23 14.236693)
(0.00019294426 1.0264197e-16 14.234276)
(-0.00016396364 -2.5504925e-19 14.236256)
(-0.00025366845 -1.7720213e-23 14.232941)
(-1.3216289e-05 -8.9450625e-17 14.233773)
(-0.00022527316 -9.7353589e-17 14.238136)
(-0.00032574839 -2.6870737e-22 14.233183)
(-0.0003757389 -6.3595937e-17 14.23815)
(-0.00037274924 6.173743e-17 14.235712)
(-0.00021594608 9.8173659e-24 14.233548)
(3.1797448e-05 -5.8538597e-17 14.235638)
(0.00029477578 -5.3232229e-17 14.232167)
(0.00038598499 4.3369558e-23 14.23507)
(0.0004401703 7.0359957e-17 14.236364)
(0.00026878235 2.8951007e-23 14.236529)
(-5.1702558e-06 -1.7166477e-27 14.233796)
(-4.6150612e-05 1.1625676e-28 14.237084)
(0.00017159523 3.1506936e-25 14.235507)
(0.00029685998 3.873569e-25 14.232106)
(0.00019586105 1.2022628e-28 14.234897)
(-7.7306019e-05 1.7950004e-28 14.234068)
(-0.00011615793 -1.5110658e-27 14.237553)
(-1.4622381e-05 5.591307e-27 14.231548)
(1.7083239e-05 -8.4290844e-22 14.232772)
(0.00011127344 -7.4736825e-16 14.237553)
(-2.8787599e-05 -8.1936095e-22 14.231895)
(-0.0002648427 -2.3810575e-19 14.235494)
(-0.00012396748 -1.4690133e-13 14.231684)
(0.00010504344 -1.8238529e-23 14.237423)
(4.1704001e-05 7.6311607e-28 14.234836)
(6.5956835e-05 2.5804917e-28 14.234148)
(0.00013724841 -1.733072e-27 14.235602)
(-1.7361421e-05 -2.8469547e-29 14.236766)
(-7.7394408e-05 9.5371807e-29 14.23754)
(5.1718205e-05 -2.0748143e-21 14.233641)
(6.8805883e-05 -5.7384343e-14 14.236345)
(-2.1535986e-05 -5.7405914e-21 14.236208)
(-9.1945751e-06 6.6905996e-21 14.23525)
(-7.1909546e-05 -2.4193134e-14 14.233736)
(-0.00011927836 -1.6816794e-21 14.233334)
(-3.9187261e-05 -4.0526137e-22 14.233291)
(-0.00018527421 -2.0676535e-14 14.235757)
(-0.00024066928 -5.9929239e-21 14.234636)
(3.9097069e-07 -3.5841905e-14 14.232993)
(-3.6019523e-05 -3.1590693e-21 14.236607)
(-0.00041794628 8.6355725e-17 14.235416)
(-0.0003569681 -1.5171384e-16 14.23584)
(6.0285981e-06 -5.6781431e-23 14.239047)
(1.3859638e-05 2.6808203e-16 14.234811)
(-4.1745357e-05 -1.4664836e-14 14.232106)
(0.00011350423 7.5987047e-22 14.237315)
(0.00020706893 1.3637685e-14 14.234363)
(0.00019880625 -6.2095186e-17 14.239091)
(7.8581059e-05 -1.5055221e-21 14.232787)
(-0.00010049903 -2.3786537e-14 14.233746)
(2.9283161e-05 -1.3112863e-14 14.241155)
(-4.2072418e-05 -3.5553576e-20 14.231069)
(-0.00018120032 1.0388772e-16 14.238536)
(-2.949592e-05 -5.1459963e-17 14.232305)
(-1.1456002e-05 1.6426972e-24 14.233424)
(5.2405327e-05 1.2755211e-16 14.23129)
(-4.6897988e-05 -1.0210162e-14 14.235234)
(-0.00024156082 1.5828719e-20 14.232767)
(-4.4444594e-05 1.0489696e-14 14.235905)
(9.4287934e-05 2.1856563e-22 14.237542)
(-1.0639996e-05 -7.1281956e-29 14.235241)
(0.0001935422 -3.9680686e-28 14.2346)
(0.00047716914 -8.4379653e-28 14.233542)
(0.00033755711 9.2327371e-24 14.234969)
(-2.778903e-05 2.0211464e-28 14.238501)
(-0.00032869481 3.8318645e-28 14.23622)
(-0.00021555722 -2.9060928e-27 14.235877)
(-3.3678098e-05 -8.9596148e-26 14.232887)
(-0.00017570066 -1.5363398e-19 14.234463)
(6.2941468e-05 -1.9795864e-13 14.235452)
(-0.0001072521 -7.1059306e-20 14.238901)
(-0.00027868428 -5.2185651e-20 14.234965)
(-0.00027078667 -9.0374759e-14 14.231831)
(-0.0001548067 -1.6597889e-21 14.23632)
(-3.5702245e-05 -3.8128446e-27 14.236105)
(-0.00019360074 2.1084897e-28 14.234934)
(-0.00022841551 2.714283e-27 14.236724)
(-0.00015633204 1.8700358e-27 14.237106)
(5.1216353e-05 4.1925261e-27 14.235477)
(9.0898099e-05 -3.9331011e-21 14.230971)
(4.734985e-05 3.6808551e-14 14.235601)
(0.00015101524 4.4722731e-21 14.238235)
(0.00022737912 -6.189934e-21 14.234865)
(0.00026218667 2.9858961e-14 14.232869)
(8.9522615e-05 8.2736995e-21 14.232366)
(-0.00015263713 -5.378938e-21 14.234611)